<?xml version="1.0" encoding="UTF-8"?>

<!-- generated on 04/18/18 19:55:12 by SUMO Version 0.32.0
<?xml version="1.0" encoding="UTF-8"?>

<configuration xmlns:xsi="http://www.w3.org/2001/XMLSchema-instance" xsi:noNamespaceSchemaLocation="http://sumo.dlr.de/xsd/sumoConfiguration.xsd">

    <input>
        <net-file value="tmp/di-tech-0.net.xml"/>
        <route-files value="tmp/di-tech-0.rou.xml"/>
    </input>

    <output>
        <tripinfo-output value="tmp/tripinfo-0.xml"/>
    </output>

    <time>
        <begin value="0.0"/>
    </time>

    <report>
        <no-warnings value="true"/>
        <no-step-log value="true"/>
    </report>

    <traci_server>
        <remote-port value="8824"/>
    </traci_server>

</configuration>
-->

<tripinfos xmlns:xsi="http://www.w3.org/2001/XMLSchema-instance" xsi:noNamespaceSchemaLocation="http://sumo.dlr.de/xsd/tripinfo_file.xsd">
    <tripinfo id="13to11.0" depart="1.00" departLane="e130_0" departPos="5.10" departSpeed="9.00" departDelay="0.00" arrival="73.00" arrivalLane="dst11_0" arrivalPos="8.90" arrivalSpeed="13.42" duration="72.00" routeLength="933.59" waitSteps="0" timeLoss="3.95" rerouteNo="1" devices="tripinfo_13to11.0 routing_13to11.0" vType="DEFAULT_VEHTYPE" speedFactor="1.00" vaporized=""/>
    <tripinfo id="13to11.1" depart="7.00" departLane="e130_0" departPos="5.10" departSpeed="9.00" departDelay="1.00" arrival="80.00" arrivalLane="dst11_0" arrivalPos="8.90" arrivalSpeed="12.80" duration="73.00" routeLength="933.59" waitSteps="0" timeLoss="4.98" rerouteNo="1" devices="tripinfo_13to11.1 routing_13to11.1" vType="DEFAULT_VEHTYPE" speedFactor="1.00" vaporized=""/>
    <tripinfo id="13to11.2" depart="9.00" departLane="e130_0" departPos="5.10" departSpeed="9.00" departDelay="1.00" arrival="82.00" arrivalLane="dst11_0" arrivalPos="8.90" arrivalSpeed="12.61" duration="73.00" routeLength="933.59" waitSteps="0" timeLoss="5.08" rerouteNo="1" devices="tripinfo_13to11.2 routing_13to11.2" vType="DEFAULT_VEHTYPE" speedFactor="1.00" vaporized=""/>
    <tripinfo id="13to11.3" depart="14.00" departLane="e130_0" departPos="5.10" departSpeed="9.00" departDelay="0.00" arrival="86.00" arrivalLane="dst11_0" arrivalPos="8.90" arrivalSpeed="12.67" duration="72.00" routeLength="933.59" waitSteps="0" timeLoss="4.38" rerouteNo="1" devices="tripinfo_13to11.3 routing_13to11.3" vType="DEFAULT_VEHTYPE" speedFactor="1.00" vaporized=""/>
    <tripinfo id="13to11.4" depart="16.00" departLane="e130_0" departPos="5.10" departSpeed="9.00" departDelay="1.00" arrival="88.00" arrivalLane="dst11_0" arrivalPos="8.90" arrivalSpeed="13.87" duration="72.00" routeLength="933.59" waitSteps="0" timeLoss="4.09" rerouteNo="1" devices="tripinfo_13to11.4 routing_13to11.4" vType="DEFAULT_VEHTYPE" speedFactor="1.00" vaporized=""/>
    <tripinfo id="13to11.5" depart="18.00" departLane="e130_0" departPos="5.10" departSpeed="9.00" departDelay="0.00" arrival="89.00" arrivalLane="dst11_0" arrivalPos="8.90" arrivalSpeed="13.79" duration="71.00" routeLength="933.59" waitSteps="0" timeLoss="3.79" rerouteNo="1" devices="tripinfo_13to11.5 routing_13to11.5" vType="DEFAULT_VEHTYPE" speedFactor="1.00" vaporized=""/>
    <tripinfo id="14to16.0" depart="25.00" departLane="e140_0" departPos="5.10" departSpeed="8.00" departDelay="0.00" arrival="92.00" arrivalLane="dst16_0" arrivalPos="11.34" arrivalSpeed="13.57" duration="67.00" routeLength="880.56" waitSteps="0" timeLoss="3.51" rerouteNo="1" devices="tripinfo_14to16.0 routing_14to16.0" vType="DEFAULT_VEHTYPE" speedFactor="1.00" vaporized=""/>
    <tripinfo id="11to13.0" depart="6.00" departLane="e110_0" departPos="5.10" departSpeed="7.00" departDelay="1.00" arrival="97.00" arrivalLane="dst13_0" arrivalPos="8.54" arrivalSpeed="12.67" duration="91.00" routeLength="934.15" waitSteps="14" timeLoss="23.77" rerouteNo="1" devices="tripinfo_11to13.0 routing_11to13.0" vType="DEFAULT_VEHTYPE" speedFactor="1.00" vaporized=""/>
    <tripinfo id="7to10.0" depart="1.00" departLane="e70_0" departPos="5.10" departSpeed="6.00" departDelay="0.00" arrival="100.00" arrivalLane="dst10_0" arrivalPos="17.44" arrivalSpeed="13.32" duration="99.00" routeLength="1241.99" waitSteps="0" timeLoss="8.92" rerouteNo="1" devices="tripinfo_7to10.0 routing_7to10.0" vType="DEFAULT_VEHTYPE" speedFactor="1.00" vaporized=""/>
    <tripinfo id="17to19.1" depart="3.00" departLane="e170_0" departPos="5.10" departSpeed="10.00" departDelay="0.00" arrival="102.00" arrivalLane="dst19_0" arrivalPos="8.80" arrivalSpeed="13.03" duration="99.00" routeLength="812.24" waitSteps="29" timeLoss="40.33" rerouteNo="1" devices="tripinfo_17to19.1 routing_17to19.1" vType="DEFAULT_VEHTYPE" speedFactor="1.00" vaporized=""/>
    <tripinfo id="17to19.0" depart="0.00" departLane="e170_0" departPos="5.10" departSpeed="10.00" departDelay="0.00" arrival="104.00" arrivalLane="dst19_0" arrivalPos="8.80" arrivalSpeed="12.70" duration="104.00" routeLength="812.24" waitSteps="36" timeLoss="45.11" rerouteNo="1" devices="tripinfo_17to19.0 routing_17to19.0" vType="DEFAULT_VEHTYPE" speedFactor="1.00" vaporized=""/>
    <tripinfo id="17to19.2" depart="7.00" departLane="e170_0" departPos="5.10" departSpeed="10.00" departDelay="2.00" arrival="106.00" arrivalLane="dst19_0" arrivalPos="8.80" arrivalSpeed="13.12" duration="99.00" routeLength="812.24" waitSteps="25" timeLoss="39.76" rerouteNo="1" devices="tripinfo_17to19.2 routing_17to19.2" vType="DEFAULT_VEHTYPE" speedFactor="1.00" vaporized=""/>
    <tripinfo id="17to19.6" depart="18.00" departLane="e170_0" departPos="5.10" departSpeed="10.00" departDelay="7.00" arrival="107.00" arrivalLane="dst19_0" arrivalPos="8.80" arrivalSpeed="13.85" duration="89.00" routeLength="812.24" waitSteps="20" timeLoss="30.41" rerouteNo="1" devices="tripinfo_17to19.6 routing_17to19.6" vType="DEFAULT_VEHTYPE" speedFactor="1.00" vaporized=""/>
    <tripinfo id="17to19.5" depart="15.00" departLane="e170_0" departPos="5.10" departSpeed="10.00" departDelay="5.00" arrival="109.00" arrivalLane="dst19_0" arrivalPos="8.80" arrivalSpeed="13.20" duration="94.00" routeLength="812.24" waitSteps="18" timeLoss="35.21" rerouteNo="1" devices="tripinfo_17to19.5 routing_17to19.5" vType="DEFAULT_VEHTYPE" speedFactor="1.00" vaporized=""/>
    <tripinfo id="17to19.3" depart="8.00" departLane="e170_0" departPos="5.10" departSpeed="10.00" departDelay="0.00" arrival="111.00" arrivalLane="dst19_0" arrivalPos="8.80" arrivalSpeed="12.63" duration="103.00" routeLength="812.24" waitSteps="25" timeLoss="43.99" rerouteNo="1" devices="tripinfo_17to19.3 routing_17to19.3" vType="DEFAULT_VEHTYPE" speedFactor="1.00" vaporized=""/>
    <tripinfo id="19to17.2" depart="32.00" departLane="e190_0" departPos="5.10" departSpeed="7.00" departDelay="8.00" arrival="112.00" arrivalLane="dst17_0" arrivalPos="8.50" arrivalSpeed="13.25" duration="80.00" routeLength="819.31" waitSteps="7" timeLoss="20.94" rerouteNo="1" devices="tripinfo_19to17.2 routing_19to17.2" vType="DEFAULT_VEHTYPE" speedFactor="1.00" vaporized=""/>
    <tripinfo id="14to16.1" depart="45.00" departLane="e140_0" departPos="5.10" departSpeed="8.00" departDelay="0.00" arrival="113.00" arrivalLane="dst16_0" arrivalPos="11.34" arrivalSpeed="13.57" duration="68.00" routeLength="880.56" waitSteps="0" timeLoss="3.94" rerouteNo="1" devices="tripinfo_14to16.1 routing_14to16.1" vType="DEFAULT_VEHTYPE" speedFactor="1.00" vaporized=""/>
    <tripinfo id="17to19.4" depart="11.00" departLane="e170_0" departPos="5.10" departSpeed="10.00" departDelay="2.00" arrival="113.00" arrivalLane="dst19_0" arrivalPos="8.80" arrivalSpeed="13.37" duration="102.00" routeLength="812.24" waitSteps="22" timeLoss="42.65" rerouteNo="1" devices="tripinfo_17to19.4 routing_17to19.4" vType="DEFAULT_VEHTYPE" speedFactor="1.00" vaporized=""/>
    <tripinfo id="19to17.1" depart="28.00" departLane="e190_0" departPos="5.10" departSpeed="7.00" departDelay="9.00" arrival="114.00" arrivalLane="dst17_0" arrivalPos="8.50" arrivalSpeed="13.23" duration="86.00" routeLength="819.31" waitSteps="13" timeLoss="26.57" rerouteNo="1" devices="tripinfo_19to17.1 routing_19to17.1" vType="DEFAULT_VEHTYPE" speedFactor="1.00" vaporized=""/>
    <tripinfo id="17to19.7" depart="20.00" departLane="e170_0" departPos="5.10" departSpeed="10.00" departDelay="8.00" arrival="114.00" arrivalLane="dst19_0" arrivalPos="8.80" arrivalSpeed="13.69" duration="94.00" routeLength="812.24" waitSteps="12" timeLoss="35.41" rerouteNo="1" devices="tripinfo_17to19.7 routing_17to19.7" vType="DEFAULT_VEHTYPE" speedFactor="1.00" vaporized=""/>
    <tripinfo id="1to7.0" depart="0.00" departLane="e10_0" departPos="5.10" departSpeed="10.00" departDelay="0.00" arrival="116.00" arrivalLane="dst7_0" arrivalPos="8.50" arrivalSpeed="13.88" duration="116.00" routeLength="1511.56" waitSteps="0" timeLoss="7.25" rerouteNo="1" devices="tripinfo_1to7.0 routing_1to7.0" vType="DEFAULT_VEHTYPE" speedFactor="1.00" vaporized=""/>
    <tripinfo id="19to17.4" depart="40.00" departLane="e190_0" departPos="5.10" departSpeed="7.00" departDelay="8.00" arrival="116.00" arrivalLane="dst17_0" arrivalPos="8.50" arrivalSpeed="13.42" duration="76.00" routeLength="819.31" waitSteps="1" timeLoss="16.27" rerouteNo="1" devices="tripinfo_19to17.4 routing_19to17.4" vType="DEFAULT_VEHTYPE" speedFactor="1.00" vaporized=""/>
    <tripinfo id="17to19.9" depart="26.00" departLane="e170_0" departPos="5.10" departSpeed="10.00" departDelay="11.00" arrival="116.00" arrivalLane="dst19_0" arrivalPos="8.80" arrivalSpeed="12.91" duration="90.00" routeLength="812.24" waitSteps="11" timeLoss="33.05" rerouteNo="1" devices="tripinfo_17to19.9 routing_17to19.9" vType="DEFAULT_VEHTYPE" speedFactor="1.00" vaporized=""/>
    <tripinfo id="19to17.0" depart="23.00" departLane="e190_0" departPos="5.10" departSpeed="7.00" departDelay="6.00" arrival="118.00" arrivalLane="dst17_0" arrivalPos="8.50" arrivalSpeed="12.86" duration="95.00" routeLength="819.31" waitSteps="17" timeLoss="35.21" rerouteNo="1" devices="tripinfo_19to17.0 routing_19to17.0" vType="DEFAULT_VEHTYPE" speedFactor="1.00" vaporized=""/>
    <tripinfo id="19to17.5" depart="48.00" departLane="e190_0" departPos="5.10" departSpeed="7.00" departDelay="12.00" arrival="119.00" arrivalLane="dst17_0" arrivalPos="8.50" arrivalSpeed="13.16" duration="71.00" routeLength="819.31" waitSteps="0" timeLoss="11.97" rerouteNo="1" devices="tripinfo_19to17.5 routing_19to17.5" vType="DEFAULT_VEHTYPE" speedFactor="1.00" vaporized=""/>
    <tripinfo id="19to17.3" depart="36.00" departLane="e190_0" departPos="5.10" departSpeed="7.00" departDelay="9.00" arrival="121.00" arrivalLane="dst17_0" arrivalPos="8.50" arrivalSpeed="13.42" duration="85.00" routeLength="819.31" waitSteps="6" timeLoss="26.05" rerouteNo="1" devices="tripinfo_19to17.3 routing_19to17.3" vType="DEFAULT_VEHTYPE" speedFactor="1.00" vaporized=""/>
    <tripinfo id="14to16.2" depart="51.00" departLane="e140_0" departPos="5.10" departSpeed="8.00" departDelay="4.00" arrival="121.00" arrivalLane="dst16_0" arrivalPos="11.34" arrivalSpeed="13.23" duration="70.00" routeLength="880.56" waitSteps="0" timeLoss="6.29" rerouteNo="1" devices="tripinfo_14to16.2 routing_14to16.2" vType="DEFAULT_VEHTYPE" speedFactor="1.00" vaporized=""/>
    <tripinfo id="1to7.1" depart="4.00" departLane="e10_0" departPos="5.10" departSpeed="10.00" departDelay="1.00" arrival="122.00" arrivalLane="dst7_0" arrivalPos="8.50" arrivalSpeed="13.16" duration="118.00" routeLength="1511.56" waitSteps="0" timeLoss="8.56" rerouteNo="1" devices="tripinfo_1to7.1 routing_1to7.1" vType="DEFAULT_VEHTYPE" speedFactor="1.00" vaporized=""/>
    <tripinfo id="14to16.3" depart="53.00" departLane="e140_0" departPos="5.10" departSpeed="8.00" departDelay="4.00" arrival="123.00" arrivalLane="dst16_0" arrivalPos="11.34" arrivalSpeed="13.03" duration="70.00" routeLength="880.56" waitSteps="0" timeLoss="6.24" rerouteNo="1" devices="tripinfo_14to16.3 routing_14to16.3" vType="DEFAULT_VEHTYPE" speedFactor="1.00" vaporized=""/>
    <tripinfo id="19to17.6" depart="50.00" departLane="e190_0" departPos="5.10" departSpeed="7.00" departDelay="13.00" arrival="124.00" arrivalLane="dst17_0" arrivalPos="8.50" arrivalSpeed="12.76" duration="74.00" routeLength="819.31" waitSteps="0" timeLoss="14.28" rerouteNo="1" devices="tripinfo_19to17.6 routing_19to17.6" vType="DEFAULT_VEHTYPE" speedFactor="1.00" vaporized=""/>
    <tripinfo id="19to17.7" depart="54.00" departLane="e190_0" departPos="5.10" departSpeed="7.00" departDelay="16.00" arrival="125.00" arrivalLane="dst17_0" arrivalPos="8.50" arrivalSpeed="13.40" duration="71.00" routeLength="819.31" waitSteps="0" timeLoss="12.00" rerouteNo="1" devices="tripinfo_19to17.7 routing_19to17.7" vType="DEFAULT_VEHTYPE" speedFactor="1.00" vaporized=""/>
    <tripinfo id="5to1.0" depart="2.00" departLane="e50_0" departPos="5.10" departSpeed="8.00" departDelay="0.00" arrival="126.00" arrivalLane="dst1_0" arrivalPos="3.70" arrivalSpeed="12.91" duration="124.00" routeLength="1632.60" waitSteps="0" timeLoss="6.35" rerouteNo="1" devices="tripinfo_5to1.0 routing_5to1.0" vType="DEFAULT_VEHTYPE" speedFactor="1.00" vaporized=""/>
    <tripinfo id="19to21.0" depart="0.00" departLane="e190_0" departPos="5.10" departSpeed="7.00" departDelay="0.00" arrival="129.00" arrivalLane="dst21_0" arrivalPos="8.53" arrivalSpeed="13.78" duration="129.00" routeLength="1690.32" waitSteps="0" timeLoss="7.25" rerouteNo="1" devices="tripinfo_19to21.0 routing_19to21.0" vType="DEFAULT_VEHTYPE" speedFactor="1.00" vaporized=""/>
    <tripinfo id="1to7.2" depart="12.00" departLane="e10_0" departPos="5.10" departSpeed="10.00" departDelay="0.00" arrival="129.00" arrivalLane="dst7_0" arrivalPos="8.50" arrivalSpeed="13.80" duration="117.00" routeLength="1511.56" waitSteps="0" timeLoss="7.48" rerouteNo="1" devices="tripinfo_1to7.2 routing_1to7.2" vType="DEFAULT_VEHTYPE" speedFactor="1.00" vaporized=""/>
    <tripinfo id="13to16.0" depart="3.00" departLane="e130_0" departPos="5.10" departSpeed="9.00" departDelay="2.00" arrival="131.00" arrivalLane="dst16_0" arrivalPos="11.34" arrivalSpeed="13.80" duration="128.00" routeLength="1653.35" waitSteps="0" timeLoss="8.71" rerouteNo="1" devices="tripinfo_13to16.0 routing_13to16.0" vType="DEFAULT_VEHTYPE" speedFactor="1.00" vaporized=""/>
    <tripinfo id="1to7.3" depart="14.00" departLane="e10_0" departPos="5.10" departSpeed="10.00" departDelay="1.00" arrival="132.00" arrivalLane="dst7_0" arrivalPos="8.50" arrivalSpeed="12.62" duration="118.00" routeLength="1511.56" waitSteps="0" timeLoss="9.03" rerouteNo="1" devices="tripinfo_1to7.3 routing_1to7.3" vType="DEFAULT_VEHTYPE" speedFactor="1.00" vaporized=""/>
    <tripinfo id="19to21.1" depart="2.00" departLane="e190_0" departPos="5.10" departSpeed="7.00" departDelay="1.00" arrival="133.00" arrivalLane="dst21_0" arrivalPos="8.53" arrivalSpeed="12.77" duration="131.00" routeLength="1690.32" waitSteps="0" timeLoss="8.51" rerouteNo="1" devices="tripinfo_19to21.1 routing_19to21.1" vType="DEFAULT_VEHTYPE" speedFactor="1.00" vaporized=""/>
    <tripinfo id="1to7.4" depart="16.00" departLane="e10_0" departPos="5.10" departSpeed="10.00" departDelay="2.00" arrival="135.00" arrivalLane="dst7_0" arrivalPos="8.50" arrivalSpeed="12.83" duration="119.00" routeLength="1511.56" waitSteps="0" timeLoss="9.77" rerouteNo="1" devices="tripinfo_1to7.4 routing_1to7.4" vType="DEFAULT_VEHTYPE" speedFactor="1.00" vaporized=""/>
    <tripinfo id="19to21.2" depart="4.00" departLane="e190_0" departPos="5.10" departSpeed="7.00" departDelay="2.00" arrival="135.00" arrivalLane="dst21_0" arrivalPos="8.53" arrivalSpeed="13.60" duration="131.00" routeLength="1690.32" waitSteps="0" timeLoss="8.49" rerouteNo="1" devices="tripinfo_19to21.2 routing_19to21.2" vType="DEFAULT_VEHTYPE" speedFactor="1.00" vaporized=""/>
    <tripinfo id="5to1.1" depart="10.00" departLane="e50_0" departPos="5.10" departSpeed="8.00" departDelay="0.00" arrival="136.00" arrivalLane="dst1_0" arrivalPos="3.70" arrivalSpeed="13.71" duration="126.00" routeLength="1632.60" waitSteps="0" timeLoss="8.22" rerouteNo="1" devices="tripinfo_5to1.1 routing_5to1.1" vType="DEFAULT_VEHTYPE" speedFactor="1.00" vaporized=""/>
    <tripinfo id="1to7.5" depart="18.00" departLane="e10_0" departPos="5.10" departSpeed="10.00" departDelay="3.00" arrival="137.00" arrivalLane="dst7_0" arrivalPos="8.50" arrivalSpeed="12.67" duration="119.00" routeLength="1511.56" waitSteps="0" timeLoss="9.57" rerouteNo="1" devices="tripinfo_1to7.5 routing_1to7.5" vType="DEFAULT_VEHTYPE" speedFactor="1.00" vaporized=""/>
    <tripinfo id="20to22.0" depart="7.00" departLane="e200_0" departPos="5.10" departSpeed="6.00" departDelay="0.00" arrival="140.00" arrivalLane="dst22_0" arrivalPos="8.80" arrivalSpeed="13.65" duration="133.00" routeLength="860.38" waitSteps="61" timeLoss="70.93" rerouteNo="1" devices="tripinfo_20to22.0 routing_20to22.0" vType="DEFAULT_VEHTYPE" speedFactor="1.00" vaporized=""/>
    <tripinfo id="21to17.0" depart="0.00" departLane="e210_0" departPos="5.10" departSpeed="13.00" departDelay="0.00" arrival="141.00" arrivalLane="dst17_0" arrivalPos="8.50" arrivalSpeed="13.85" duration="141.00" routeLength="1836.68" waitSteps="0" timeLoss="8.05" rerouteNo="1" devices="tripinfo_21to17.0 routing_21to17.0" vType="DEFAULT_VEHTYPE" speedFactor="1.00" vaporized=""/>
    <tripinfo id="1to7.6" depart="22.00" departLane="e10_0" departPos="5.10" departSpeed="10.00" departDelay="4.00" arrival="142.00" arrivalLane="dst7_0" arrivalPos="8.50" arrivalSpeed="13.07" duration="120.00" routeLength="1511.56" waitSteps="0" timeLoss="10.47" rerouteNo="1" devices="tripinfo_1to7.6 routing_1to7.6" vType="DEFAULT_VEHTYPE" speedFactor="1.00" vaporized=""/>
    <tripinfo id="20to22.1" depart="11.00" departLane="e200_0" departPos="5.10" departSpeed="6.00" departDelay="0.00" arrival="142.00" arrivalLane="dst22_0" arrivalPos="8.80" arrivalSpeed="12.73" duration="131.00" routeLength="860.38" waitSteps="61" timeLoss="68.95" rerouteNo="1" devices="tripinfo_20to22.1 routing_20to22.1" vType="DEFAULT_VEHTYPE" speedFactor="1.00" vaporized=""/>
    <tripinfo id="22to20.0" depart="5.00" departLane="e220_0" departPos="5.10" departSpeed="5.00" departDelay="0.00" arrival="145.00" arrivalLane="dst20_0" arrivalPos="8.57" arrivalSpeed="13.36" duration="140.00" routeLength="860.48" waitSteps="68" timeLoss="77.24" rerouteNo="1" devices="tripinfo_22to20.0 routing_22to20.0" vType="DEFAULT_VEHTYPE" speedFactor="1.00" vaporized=""/>
    <tripinfo id="19to14.0" depart="6.00" departLane="e190_0" departPos="5.10" departSpeed="7.00" departDelay="3.00" arrival="147.00" arrivalLane="dst14_0" arrivalPos="1.01" arrivalSpeed="12.78" duration="141.00" routeLength="1830.67" waitSteps="0" timeLoss="9.12" rerouteNo="1" devices="tripinfo_19to14.0 routing_19to14.0" vType="DEFAULT_VEHTYPE" speedFactor="1.00" vaporized=""/>
    <tripinfo id="22to20.1" depart="9.00" departLane="e220_0" departPos="5.10" departSpeed="5.00" departDelay="0.00" arrival="147.00" arrivalLane="dst20_0" arrivalPos="8.57" arrivalSpeed="13.54" duration="138.00" routeLength="860.48" waitSteps="65" timeLoss="75.37" rerouteNo="1" devices="tripinfo_22to20.1 routing_22to20.1" vType="DEFAULT_VEHTYPE" speedFactor="1.00" vaporized=""/>
    <tripinfo id="20to22.2" depart="15.00" departLane="e200_0" departPos="5.10" departSpeed="6.00" departDelay="2.00" arrival="147.00" arrivalLane="dst22_0" arrivalPos="8.80" arrivalSpeed="13.12" duration="132.00" routeLength="860.38" waitSteps="58" timeLoss="69.24" rerouteNo="1" devices="tripinfo_20to22.2 routing_20to22.2" vType="DEFAULT_VEHTYPE" speedFactor="1.00" vaporized=""/>
    <tripinfo id="20to22.3" depart="17.00" departLane="e200_0" departPos="5.10" departSpeed="6.00" departDelay="3.00" arrival="148.00" arrivalLane="dst22_0" arrivalPos="8.80" arrivalSpeed="12.93" duration="131.00" routeLength="860.38" waitSteps="57" timeLoss="69.07" rerouteNo="1" devices="tripinfo_20to22.3 routing_20to22.3" vType="DEFAULT_VEHTYPE" speedFactor="1.00" vaporized=""/>
    <tripinfo id="5to1.2" depart="25.00" departLane="e50_0" departPos="5.10" departSpeed="8.00" departDelay="0.00" arrival="151.00" arrivalLane="dst1_0" arrivalPos="3.70" arrivalSpeed="12.64" duration="126.00" routeLength="1632.60" waitSteps="0" timeLoss="7.84" rerouteNo="1" devices="tripinfo_5to1.2 routing_5to1.2" vType="DEFAULT_VEHTYPE" speedFactor="1.00" vaporized=""/>
    <tripinfo id="5to1.3" depart="27.00" departLane="e50_0" departPos="5.10" departSpeed="8.00" departDelay="1.00" arrival="153.00" arrivalLane="dst1_0" arrivalPos="3.70" arrivalSpeed="12.78" duration="126.00" routeLength="1632.60" waitSteps="0" timeLoss="8.25" rerouteNo="1" devices="tripinfo_5to1.3 routing_5to1.3" vType="DEFAULT_VEHTYPE" speedFactor="1.00" vaporized=""/>
    <tripinfo id="20to22.4" depart="23.00" departLane="e200_0" departPos="5.10" departSpeed="6.00" departDelay="2.00" arrival="156.00" arrivalLane="dst22_0" arrivalPos="8.80" arrivalSpeed="13.10" duration="133.00" routeLength="860.38" waitSteps="55" timeLoss="70.21" rerouteNo="1" devices="tripinfo_20to22.4 routing_20to22.4" vType="DEFAULT_VEHTYPE" speedFactor="1.00" vaporized=""/>
    <tripinfo id="20to22.5" depart="25.00" departLane="e200_0" departPos="5.10" departSpeed="6.00" departDelay="0.00" arrival="158.00" arrivalLane="dst22_0" arrivalPos="8.80" arrivalSpeed="13.21" duration="133.00" routeLength="860.38" waitSteps="54" timeLoss="70.27" rerouteNo="1" devices="tripinfo_20to22.5 routing_20to22.5" vType="DEFAULT_VEHTYPE" speedFactor="1.00" vaporized=""/>
    <tripinfo id="5to1.4" depart="33.00" departLane="e50_0" departPos="5.10" departSpeed="8.00" departDelay="0.00" arrival="159.00" arrivalLane="dst1_0" arrivalPos="3.70" arrivalSpeed="13.61" duration="126.00" routeLength="1632.60" waitSteps="0" timeLoss="7.84" rerouteNo="1" devices="tripinfo_5to1.4 routing_5to1.4" vType="DEFAULT_VEHTYPE" speedFactor="1.00" vaporized=""/>
    <tripinfo id="20to22.6" depart="28.00" departLane="e200_0" departPos="5.10" departSpeed="6.00" departDelay="0.00" arrival="160.00" arrivalLane="dst22_0" arrivalPos="8.80" arrivalSpeed="13.50" duration="132.00" routeLength="860.38" waitSteps="55" timeLoss="69.26" rerouteNo="1" devices="tripinfo_20to22.6 routing_20to22.6" vType="DEFAULT_VEHTYPE" speedFactor="1.00" vaporized=""/>
    <tripinfo id="5to1.5" depart="36.00" departLane="e50_0" departPos="5.10" departSpeed="8.00" departDelay="0.00" arrival="163.00" arrivalLane="dst1_0" arrivalPos="3.70" arrivalSpeed="13.25" duration="127.00" routeLength="1632.60" waitSteps="0" timeLoss="8.67" rerouteNo="1" devices="tripinfo_5to1.5 routing_5to1.5" vType="DEFAULT_VEHTYPE" speedFactor="1.00" vaporized=""/>
    <tripinfo id="11to10.0" depart="2.00" departLane="e110_0" departPos="5.10" departSpeed="7.00" departDelay="0.00" arrival="164.00" arrivalLane="dst10_0" arrivalPos="17.44" arrivalSpeed="13.52" duration="162.00" routeLength="1338.29" waitSteps="53" timeLoss="65.31" rerouteNo="1" devices="tripinfo_11to10.0 routing_11to10.0" vType="DEFAULT_VEHTYPE" speedFactor="1.00" vaporized=""/>
    <tripinfo id="20to22.7" depart="36.00" departLane="e200_0" departPos="5.10" departSpeed="6.00" departDelay="0.00" arrival="166.00" arrivalLane="dst22_0" arrivalPos="8.80" arrivalSpeed="13.59" duration="130.00" routeLength="860.38" waitSteps="51" timeLoss="67.67" rerouteNo="1" devices="tripinfo_20to22.7 routing_20to22.7" vType="DEFAULT_VEHTYPE" speedFactor="1.00" vaporized=""/>
    <tripinfo id="1to8.0" depart="6.00" departLane="e10_0" departPos="5.10" departSpeed="10.00" departDelay="0.00" arrival="166.00" arrivalLane="dst8_0" arrivalPos="14.38" arrivalSpeed="13.49" duration="160.00" routeLength="2099.36" waitSteps="0" timeLoss="8.37" rerouteNo="1" devices="tripinfo_1to8.0 routing_1to8.0" vType="DEFAULT_VEHTYPE" speedFactor="1.00" vaporized=""/>
    <tripinfo id="5to1.6" depart="47.00" departLane="e50_0" departPos="5.10" departSpeed="8.00" departDelay="0.00" arrival="174.00" arrivalLane="dst1_0" arrivalPos="3.70" arrivalSpeed="13.83" duration="127.00" routeLength="1632.60" waitSteps="0" timeLoss="8.71" rerouteNo="1" devices="tripinfo_5to1.6 routing_5to1.6" vType="DEFAULT_VEHTYPE" speedFactor="1.00" vaporized=""/>
    <tripinfo id="20to22.8" depart="45.00" departLane="e200_0" departPos="5.10" departSpeed="6.00" departDelay="4.00" arrival="174.00" arrivalLane="dst22_0" arrivalPos="8.80" arrivalSpeed="12.94" duration="129.00" routeLength="860.38" waitSteps="46" timeLoss="66.20" rerouteNo="1" devices="tripinfo_20to22.8 routing_20to22.8" vType="DEFAULT_VEHTYPE" speedFactor="1.00" vaporized=""/>
    <tripinfo id="20to22.9" depart="47.00" departLane="e200_0" departPos="5.10" departSpeed="6.00" departDelay="1.00" arrival="176.00" arrivalLane="dst22_0" arrivalPos="8.80" arrivalSpeed="13.40" duration="129.00" routeLength="860.38" waitSteps="45" timeLoss="66.36" rerouteNo="1" devices="tripinfo_20to22.9 routing_20to22.9" vType="DEFAULT_VEHTYPE" speedFactor="1.00" vaporized=""/>
    <tripinfo id="20to22.10" depart="49.00" departLane="e200_0" departPos="5.10" departSpeed="6.00" departDelay="2.00" arrival="178.00" arrivalLane="dst22_0" arrivalPos="8.80" arrivalSpeed="13.14" duration="129.00" routeLength="860.38" waitSteps="44" timeLoss="66.17" rerouteNo="1" devices="tripinfo_20to22.10 routing_20to22.10" vType="DEFAULT_VEHTYPE" speedFactor="1.00" vaporized=""/>
    <tripinfo id="5to1.7" depart="55.00" departLane="e50_0" departPos="5.10" departSpeed="8.00" departDelay="0.00" arrival="180.00" arrivalLane="dst1_0" arrivalPos="3.70" arrivalSpeed="12.65" duration="125.00" routeLength="1632.60" waitSteps="0" timeLoss="6.78" rerouteNo="1" devices="tripinfo_5to1.7 routing_5to1.7" vType="DEFAULT_VEHTYPE" speedFactor="1.00" vaporized=""/>
    <tripinfo id="20to22.11" depart="53.00" departLane="e200_0" departPos="5.10" departSpeed="6.00" departDelay="2.00" arrival="183.00" arrivalLane="dst22_0" arrivalPos="8.80" arrivalSpeed="13.19" duration="130.00" routeLength="860.38" waitSteps="45" timeLoss="67.61" rerouteNo="1" devices="tripinfo_20to22.11 routing_20to22.11" vType="DEFAULT_VEHTYPE" speedFactor="1.00" vaporized=""/>
    <tripinfo id="1to8.1" depart="23.00" departLane="e10_0" departPos="5.10" departSpeed="10.00" departDelay="5.00" arrival="183.00" arrivalLane="dst8_0" arrivalPos="14.38" arrivalSpeed="12.88" duration="160.00" routeLength="2099.36" waitSteps="0" timeLoss="8.34" rerouteNo="1" devices="tripinfo_1to8.1 routing_1to8.1" vType="DEFAULT_VEHTYPE" speedFactor="1.00" vaporized=""/>
    <tripinfo id="5to1.8" depart="61.00" departLane="e50_0" departPos="5.10" departSpeed="8.00" departDelay="0.00" arrival="188.00" arrivalLane="dst1_0" arrivalPos="3.70" arrivalSpeed="12.70" duration="127.00" routeLength="1632.60" waitSteps="0" timeLoss="8.67" rerouteNo="1" devices="tripinfo_5to1.8 routing_5to1.8" vType="DEFAULT_VEHTYPE" speedFactor="1.00" vaporized=""/>
    <tripinfo id="20to22.12" depart="62.00" departLane="e200_0" departPos="5.10" departSpeed="6.00" departDelay="0.00" arrival="192.00" arrivalLane="dst22_0" arrivalPos="8.80" arrivalSpeed="13.80" duration="130.00" routeLength="860.38" waitSteps="43" timeLoss="68.06" rerouteNo="1" devices="tripinfo_20to22.12 routing_20to22.12" vType="DEFAULT_VEHTYPE" speedFactor="1.00" vaporized=""/>
    <tripinfo id="20to22.13" depart="64.00" departLane="e200_0" departPos="5.10" departSpeed="6.00" departDelay="0.00" arrival="195.00" arrivalLane="dst22_0" arrivalPos="8.80" arrivalSpeed="13.07" duration="131.00" routeLength="860.38" waitSteps="43" timeLoss="68.18" rerouteNo="1" devices="tripinfo_20to22.13 routing_20to22.13" vType="DEFAULT_VEHTYPE" speedFactor="1.00" vaporized=""/>
    <tripinfo id="20to22.14" depart="72.00" departLane="e200_0" departPos="5.10" departSpeed="6.00" departDelay="1.00" arrival="200.00" arrivalLane="dst22_0" arrivalPos="8.80" arrivalSpeed="13.26" duration="128.00" routeLength="860.38" waitSteps="41" timeLoss="65.56" rerouteNo="1" devices="tripinfo_20to22.14 routing_20to22.14" vType="DEFAULT_VEHTYPE" speedFactor="1.00" vaporized=""/>
    <tripinfo id="20to22.15" depart="74.00" departLane="e200_0" departPos="5.10" departSpeed="6.00" departDelay="2.00" arrival="202.00" arrivalLane="dst22_0" arrivalPos="8.80" arrivalSpeed="12.94" duration="128.00" routeLength="860.38" waitSteps="41" timeLoss="65.48" rerouteNo="1" devices="tripinfo_20to22.15 routing_20to22.15" vType="DEFAULT_VEHTYPE" speedFactor="1.00" vaporized=""/>
    <tripinfo id="5to1.9" depart="80.00" departLane="e50_0" departPos="5.10" departSpeed="8.00" departDelay="0.00" arrival="206.00" arrivalLane="dst1_0" arrivalPos="3.70" arrivalSpeed="13.76" duration="126.00" routeLength="1632.60" waitSteps="0" timeLoss="8.39" rerouteNo="1" devices="tripinfo_5to1.9 routing_5to1.9" vType="DEFAULT_VEHTYPE" speedFactor="1.00" vaporized=""/>
    <tripinfo id="20to22.16" depart="78.00" departLane="e200_0" departPos="5.10" departSpeed="6.00" departDelay="0.00" arrival="207.00" arrivalLane="dst22_0" arrivalPos="8.80" arrivalSpeed="13.10" duration="129.00" routeLength="860.38" waitSteps="39" timeLoss="66.47" rerouteNo="1" devices="tripinfo_20to22.16 routing_20to22.16" vType="DEFAULT_VEHTYPE" speedFactor="1.00" vaporized=""/>
    <tripinfo id="20to22.17" depart="82.00" departLane="e200_0" departPos="5.10" departSpeed="6.00" departDelay="0.00" arrival="209.00" arrivalLane="dst22_0" arrivalPos="8.80" arrivalSpeed="13.64" duration="127.00" routeLength="860.38" waitSteps="38" timeLoss="64.22" rerouteNo="1" devices="tripinfo_20to22.17 routing_20to22.17" vType="DEFAULT_VEHTYPE" speedFactor="1.00" vaporized=""/>
    <tripinfo id="20to22.18" depart="86.00" departLane="e200_0" departPos="5.10" departSpeed="6.00" departDelay="2.00" arrival="214.00" arrivalLane="dst22_0" arrivalPos="8.80" arrivalSpeed="13.35" duration="128.00" routeLength="860.38" waitSteps="35" timeLoss="65.87" rerouteNo="1" devices="tripinfo_20to22.18 routing_20to22.18" vType="DEFAULT_VEHTYPE" speedFactor="1.00" vaporized=""/>