<?xml version="1.0" encoding="UTF-8"?>

<!-- generated on 04/18/18 19:55:12 by SUMO Version 0.32.0
<?xml version="1.0" encoding="UTF-8"?>

<configuration xmlns:xsi="http://www.w3.org/2001/XMLSchema-instance" xsi:noNamespaceSchemaLocation="http://sumo.dlr.de/xsd/sumoConfiguration.xsd">

    <input>
        <net-file value="tmp/di-tech-6.net.xml"/>
        <route-files value="tmp/di-tech-6.rou.xml"/>
    </input>

    <output>
        <tripinfo-output value="tmp/tripinfo-6.xml"/>
    </output>

    <time>
        <begin value="0.0"/>
    </time>

    <report>
        <no-warnings value="true"/>
        <no-step-log value="true"/>
    </report>

    <traci_server>
        <remote-port value="8830"/>
    </traci_server>

</configuration>
-->

<tripinfos xmlns:xsi="http://www.w3.org/2001/XMLSchema-instance" xsi:noNamespaceSchemaLocation="http://sumo.dlr.de/xsd/tripinfo_file.xsd">
    <tripinfo id="7to10.0" depart="37.00" departLane="e70_0" departPos="5.10" departSpeed="6.00" departDelay="0.00" arrival="134.00" arrivalLane="dst10_0" arrivalPos="17.44" arrivalSpeed="13.07" duration="97.00" routeLength="1241.99" waitSteps="0" timeLoss="7.11" rerouteNo="1" devices="tripinfo_7to10.0 routing_7to10.0" vType="DEFAULT_VEHTYPE" speedFactor="1.00" vaporized=""/>
    <tripinfo id="19to21.0" depart="0.00" departLane="e190_0" departPos="5.10" departSpeed="7.00" departDelay="0.00" arrival="138.00" arrivalLane="dst21_0" arrivalPos="8.53" arrivalSpeed="12.90" duration="138.00" routeLength="1690.32" waitSteps="1" timeLoss="15.58" rerouteNo="1" devices="tripinfo_19to21.0 routing_19to21.0" vType="DEFAULT_VEHTYPE" speedFactor="1.00" vaporized=""/>
    <tripinfo id="1to7.0" depart="8.00" departLane="e10_0" departPos="5.10" departSpeed="10.00" departDelay="0.00" arrival="143.00" arrivalLane="dst7_0" arrivalPos="8.50" arrivalSpeed="13.57" duration="135.00" routeLength="1511.56" waitSteps="14" timeLoss="25.95" rerouteNo="1" devices="tripinfo_1to7.0 routing_1to7.0" vType="DEFAULT_VEHTYPE" speedFactor="1.00" vaporized=""/>
    <tripinfo id="13to16.0" depart="21.00" departLane="e130_0" departPos="5.10" departSpeed="9.00" departDelay="0.00" arrival="151.00" arrivalLane="dst16_0" arrivalPos="11.34" arrivalSpeed="12.66" duration="130.00" routeLength="1653.35" waitSteps="0" timeLoss="10.82" rerouteNo="1" devices="tripinfo_13to16.0 routing_13to16.0" vType="DEFAULT_VEHTYPE" speedFactor="1.00" vaporized=""/>
    <tripinfo id="19to21.1" depart="25.00" departLane="e190_0" departPos="5.10" departSpeed="7.00" departDelay="0.00" arrival="155.00" arrivalLane="dst21_0" arrivalPos="8.53" arrivalSpeed="12.76" duration="130.00" routeLength="1690.32" waitSteps="0" timeLoss="8.35" rerouteNo="1" devices="tripinfo_19to21.1 routing_19to21.1" vType="DEFAULT_VEHTYPE" speedFactor="1.00" vaporized=""/>
    <tripinfo id="20to22.0" depart="106.00" departLane="e200_0" departPos="5.10" departSpeed="6.00" departDelay="0.00" arrival="173.00" arrivalLane="dst22_0" arrivalPos="8.80" arrivalSpeed="13.26" duration="67.00" routeLength="860.38" waitSteps="0" timeLoss="4.24" rerouteNo="1" devices="tripinfo_20to22.0 routing_20to22.0" vType="DEFAULT_VEHTYPE" speedFactor="1.00" vaporized=""/>
    <tripinfo id="8to1.0" depart="38.00" departLane="e80_0" departPos="5.10" departSpeed="6.00" departDelay="0.00" arrival="198.00" arrivalLane="dst1_0" arrivalPos="3.70" arrivalSpeed="13.37" duration="160.00" routeLength="2080.54" waitSteps="0" timeLoss="10.22" rerouteNo="1" devices="tripinfo_8to1.0 routing_8to1.0" vType="DEFAULT_VEHTYPE" speedFactor="1.00" vaporized=""/>
    <tripinfo id="21to22.0" depart="52.00" departLane="e210_0" departPos="5.10" departSpeed="13.00" departDelay="0.00" arrival="211.00" arrivalLane="dst22_0" arrivalPos="8.80" arrivalSpeed="13.01" duration="159.00" routeLength="944.64" waitSteps="75" timeLoss="90.75" rerouteNo="1" devices="tripinfo_21to22.0 routing_21to22.0" vType="DEFAULT_VEHTYPE" speedFactor="1.00" vaporized=""/>
    <tripinfo id="8to2.0" depart="58.00" departLane="e80_0" departPos="5.10" departSpeed="6.00" departDelay="0.00" arrival="218.00" arrivalLane="dst2_0" arrivalPos="12.10" arrivalSpeed="13.64" duration="160.00" routeLength="2074.77" waitSteps="0" timeLoss="10.60" rerouteNo="1" devices="tripinfo_8to2.0 routing_8to2.0" vType="DEFAULT_VEHTYPE" speedFactor="1.00" vaporized=""/>
    <tripinfo id="13to11.0" depart="66.00" departLane="e130_0" departPos="5.10" departSpeed="9.00" departDelay="0.00" arrival="219.00" arrivalLane="dst11_0" arrivalPos="8.90" arrivalSpeed="13.30" duration="153.00" routeLength="933.59" waitSteps="76" timeLoss="85.77" rerouteNo="1" devices="tripinfo_13to11.0 routing_13to11.0" vType="DEFAULT_VEHTYPE" speedFactor="1.00" vaporized=""/>
    <tripinfo id="13to11.1" depart="80.00" departLane="e130_0" departPos="5.10" departSpeed="9.00" departDelay="0.00" arrival="221.00" arrivalLane="dst11_0" arrivalPos="8.90" arrivalSpeed="13.33" duration="141.00" routeLength="933.59" waitSteps="64" timeLoss="73.59" rerouteNo="1" devices="tripinfo_13to11.1 routing_13to11.1" vType="DEFAULT_VEHTYPE" speedFactor="1.00" vaporized=""/>
    <tripinfo id="13to11.2" depart="124.00" departLane="e130_0" departPos="5.10" departSpeed="9.00" departDelay="0.00" arrival="225.00" arrivalLane="dst11_0" arrivalPos="8.90" arrivalSpeed="13.63" duration="101.00" routeLength="933.59" waitSteps="24" timeLoss="33.52" rerouteNo="1" devices="tripinfo_13to11.2 routing_13to11.2" vType="DEFAULT_VEHTYPE" speedFactor="1.00" vaporized=""/>
    <tripinfo id="21to17.0" depart="37.00" departLane="e210_0" departPos="5.10" departSpeed="13.00" departDelay="0.00" arrival="245.00" arrivalLane="dst17_0" arrivalPos="8.50" arrivalSpeed="13.77" duration="208.00" routeLength="1836.68" waitSteps="52" timeLoss="74.90" rerouteNo="1" devices="tripinfo_21to17.0 routing_21to17.0" vType="DEFAULT_VEHTYPE" speedFactor="1.00" vaporized=""/>
    <tripinfo id="7to10.1" depart="151.00" departLane="e70_0" departPos="5.10" departSpeed="6.00" departDelay="0.00" arrival="250.00" arrivalLane="dst10_0" arrivalPos="17.44" arrivalSpeed="13.74" duration="99.00" routeLength="1241.99" waitSteps="0" timeLoss="9.61" rerouteNo="1" devices="tripinfo_7to10.1 routing_7to10.1" vType="DEFAULT_VEHTYPE" speedFactor="1.00" vaporized=""/>
    <tripinfo id="5to1.0" depart="130.00" departLane="e50_0" departPos="5.10" departSpeed="8.00" departDelay="0.00" arrival="257.00" arrivalLane="dst1_0" arrivalPos="3.70" arrivalSpeed="13.27" duration="127.00" routeLength="1632.60" waitSteps="0" timeLoss="8.69" rerouteNo="1" devices="tripinfo_5to1.0 routing_5to1.0" vType="DEFAULT_VEHTYPE" speedFactor="1.00" vaporized=""/>
    <tripinfo id="11to1.0" depart="30.00" departLane="e110_0" departPos="5.10" departSpeed="7.00" departDelay="0.00" arrival="267.00" arrivalLane="dst1_0" arrivalPos="3.70" arrivalSpeed="12.80" duration="237.00" routeLength="2417.16" waitSteps="47" timeLoss="62.33" rerouteNo="1" devices="tripinfo_11to1.0 routing_11to1.0" vType="DEFAULT_VEHTYPE" speedFactor="1.00" vaporized=""/>
    <tripinfo id="19to21.2" depart="32.00" departLane="e190_0" departPos="5.10" departSpeed="7.00" departDelay="0.00" arrival="270.00" arrivalLane="dst21_0" arrivalPos="8.53" arrivalSpeed="13.30" duration="238.00" routeLength="1690.32" waitSteps="102" timeLoss="116.36" rerouteNo="1" devices="tripinfo_19to21.2 routing_19to21.2" vType="DEFAULT_VEHTYPE" speedFactor="1.00" vaporized=""/>
    <tripinfo id="5to1.1" depart="160.00" departLane="e50_0" departPos="5.10" departSpeed="8.00" departDelay="0.00" arrival="286.00" arrivalLane="dst1_0" arrivalPos="3.70" arrivalSpeed="13.22" duration="126.00" routeLength="1632.60" waitSteps="0" timeLoss="8.19" rerouteNo="1" devices="tripinfo_5to1.1 routing_5to1.1" vType="DEFAULT_VEHTYPE" speedFactor="1.00" vaporized=""/>
    <tripinfo id="13to16.1" depart="146.00" departLane="e130_0" departPos="5.10" departSpeed="9.00" departDelay="0.00" arrival="286.00" arrivalLane="dst16_0" arrivalPos="11.34" arrivalSpeed="12.68" duration="140.00" routeLength="1653.35" waitSteps="2" timeLoss="20.89" rerouteNo="1" devices="tripinfo_13to16.1 routing_13to16.1" vType="DEFAULT_VEHTYPE" speedFactor="1.00" vaporized=""/>
    <tripinfo id="22to20.0" depart="229.00" departLane="e220_0" departPos="5.10" departSpeed="5.00" departDelay="0.00" arrival="296.00" arrivalLane="dst20_0" arrivalPos="8.57" arrivalSpeed="13.40" duration="67.00" routeLength="860.48" waitSteps="0" timeLoss="4.42" rerouteNo="1" devices="tripinfo_22to20.0 routing_22to20.0" vType="DEFAULT_VEHTYPE" speedFactor="1.00" vaporized=""/>
    <tripinfo id="11to13.0" depart="48.00" departLane="e110_0" departPos="5.10" departSpeed="7.00" departDelay="0.00" arrival="297.00" arrivalLane="dst13_0" arrivalPos="8.54" arrivalSpeed="13.36" duration="249.00" routeLength="934.15" waitSteps="172" timeLoss="181.38" rerouteNo="1" devices="tripinfo_11to13.0 routing_11to13.0" vType="DEFAULT_VEHTYPE" speedFactor="1.00" vaporized=""/>
    <tripinfo id="11to13.1" depart="128.00" departLane="e110_0" departPos="5.10" departSpeed="7.00" departDelay="2.00" arrival="306.00" arrivalLane="dst13_0" arrivalPos="8.54" arrivalSpeed="12.93" duration="178.00" routeLength="934.15" waitSteps="99" timeLoss="110.61" rerouteNo="1" devices="tripinfo_11to13.1 routing_11to13.1" vType="DEFAULT_VEHTYPE" speedFactor="1.00" vaporized=""/>
    <tripinfo id="11to13.2" depart="150.00" departLane="e110_0" departPos="5.10" departSpeed="7.00" departDelay="1.00" arrival="311.00" arrivalLane="dst13_0" arrivalPos="8.54" arrivalSpeed="13.68" duration="161.00" routeLength="934.15" waitSteps="78" timeLoss="93.04" rerouteNo="1" devices="tripinfo_11to13.2 routing_11to13.2" vType="DEFAULT_VEHTYPE" speedFactor="1.00" vaporized=""/>
    <tripinfo id="22to20.1" depart="246.00" departLane="e220_0" departPos="5.10" departSpeed="5.00" departDelay="0.00" arrival="312.00" arrivalLane="dst20_0" arrivalPos="8.57" arrivalSpeed="13.15" duration="66.00" routeLength="860.48" waitSteps="0" timeLoss="3.92" rerouteNo="1" devices="tripinfo_22to20.1 routing_22to20.1" vType="DEFAULT_VEHTYPE" speedFactor="1.00" vaporized=""/>
    <tripinfo id="20to14.0" depart="33.00" departLane="e200_0" departPos="5.10" departSpeed="6.00" departDelay="0.00" arrival="314.00" arrivalLane="dst14_0" arrivalPos="1.01" arrivalSpeed="13.56" duration="281.00" routeLength="2770.66" waitSteps="62" timeLoss="81.22" rerouteNo="1" devices="tripinfo_20to14.0 routing_20to14.0" vType="DEFAULT_VEHTYPE" speedFactor="1.00" vaporized=""/>
    <tripinfo id="20to22.1" depart="249.00" departLane="e200_0" departPos="5.10" departSpeed="6.00" departDelay="0.00" arrival="315.00" arrivalLane="dst22_0" arrivalPos="8.80" arrivalSpeed="12.83" duration="66.00" routeLength="860.38" waitSteps="0" timeLoss="3.33" rerouteNo="1" devices="tripinfo_20to22.1 routing_20to22.1" vType="DEFAULT_VEHTYPE" speedFactor="1.00" vaporized=""/>
    <tripinfo id="11to13.3" depart="174.00" departLane="e110_0" departPos="5.10" departSpeed="7.00" departDelay="0.00" arrival="316.00" arrivalLane="dst13_0" arrivalPos="8.54" arrivalSpeed="13.05" duration="142.00" routeLength="934.15" waitSteps="59" timeLoss="74.16" rerouteNo="1" devices="tripinfo_11to13.3 routing_11to13.3" vType="DEFAULT_VEHTYPE" speedFactor="1.00" vaporized=""/>
    <tripinfo id="13to11.3" depart="251.00" departLane="e130_0" departPos="5.10" departSpeed="9.00" departDelay="0.00" arrival="322.00" arrivalLane="dst11_0" arrivalPos="8.90" arrivalSpeed="13.33" duration="71.00" routeLength="933.59" waitSteps="0" timeLoss="3.38" rerouteNo="1" devices="tripinfo_13to11.3 routing_13to11.3" vType="DEFAULT_VEHTYPE" speedFactor="1.00" vaporized=""/>
    <tripinfo id="20to22.2" depart="273.00" departLane="e200_0" departPos="5.10" departSpeed="6.00" departDelay="0.00" arrival="340.00" arrivalLane="dst22_0" arrivalPos="8.80" arrivalSpeed="13.43" duration="67.00" routeLength="860.38" waitSteps="0" timeLoss="4.16" rerouteNo="1" devices="tripinfo_20to22.2 routing_20to22.2" vType="DEFAULT_VEHTYPE" speedFactor="1.00" vaporized=""/>
    <tripinfo id="21to22.1" depart="173.00" departLane="e210_0" departPos="5.10" departSpeed="13.00" departDelay="0.00" arrival="344.00" arrivalLane="dst22_0" arrivalPos="8.80" arrivalSpeed="13.14" duration="171.00" routeLength="944.64" waitSteps="86" timeLoss="102.81" rerouteNo="1" devices="tripinfo_21to22.1 routing_21to22.1" vType="DEFAULT_VEHTYPE" speedFactor="1.00" vaporized=""/>
    <tripinfo id="13to11.4" depart="275.00" departLane="e130_0" departPos="5.10" departSpeed="9.00" departDelay="0.00" arrival="346.00" arrivalLane="dst11_0" arrivalPos="8.90" arrivalSpeed="13.82" duration="71.00" routeLength="933.59" waitSteps="0" timeLoss="3.37" rerouteNo="1" devices="tripinfo_13to11.4 routing_13to11.4" vType="DEFAULT_VEHTYPE" speedFactor="1.00" vaporized=""/>
    <tripinfo id="1to2.0" depart="17.00" departLane="e10_0" departPos="5.10" departSpeed="10.00" departDelay="1.00" arrival="375.00" arrivalLane="dst2_0" arrivalPos="12.10" arrivalSpeed="12.67" duration="358.00" routeLength="1006.06" waitSteps="272" timeLoss="285.42" rerouteNo="1" devices="tripinfo_1to2.0 routing_1to2.0" vType="DEFAULT_VEHTYPE" speedFactor="1.00" vaporized=""/>
    <tripinfo id="1to8.0" depart="15.00" departLane="e10_0" departPos="5.10" departSpeed="10.00" departDelay="0.00" arrival="379.00" arrivalLane="dst8_0" arrivalPos="14.38" arrivalSpeed="13.20" duration="364.00" routeLength="2099.36" waitSteps="188" timeLoss="212.12" rerouteNo="1" devices="tripinfo_1to8.0 routing_1to8.0" vType="DEFAULT_VEHTYPE" speedFactor="1.00" vaporized=""/>
    <tripinfo id="17to19.1" depart="175.00" departLane="e170_0" departPos="5.10" departSpeed="10.00" departDelay="0.00" arrival="394.00" arrivalLane="dst19_0" arrivalPos="8.80" arrivalSpeed="12.80" duration="219.00" routeLength="812.24" waitSteps="149" timeLoss="160.53" rerouteNo="1" devices="tripinfo_17to19.1 routing_17to19.1" vType="DEFAULT_VEHTYPE" speedFactor="1.00" vaporized=""/>
    <tripinfo id="17to19.0" depart="147.00" departLane="e170_0" departPos="5.10" departSpeed="10.00" departDelay="0.00" arrival="396.00" arrivalLane="dst19_0" arrivalPos="8.80" arrivalSpeed="13.81" duration="249.00" routeLength="812.24" waitSteps="181" timeLoss="190.19" rerouteNo="1" devices="tripinfo_17to19.0 routing_17to19.0" vType="DEFAULT_VEHTYPE" speedFactor="1.00" vaporized=""/>
    <tripinfo id="16to22.0" depart="74.00" departLane="e160_0" departPos="5.10" departSpeed="6.00" departDelay="0.00" arrival="396.00" arrivalLane="dst22_0" arrivalPos="8.80" arrivalSpeed="13.46" duration="322.00" routeLength="2635.81" waitSteps="106" timeLoss="131.97" rerouteNo="1" devices="tripinfo_16to22.0 routing_16to22.0" vType="DEFAULT_VEHTYPE" speedFactor="1.00" vaporized=""/>
    <tripinfo id="17to19.2" depart="242.00" departLane="e170_0" departPos="5.10" departSpeed="10.00" departDelay="0.00" arrival="398.00" arrivalLane="dst19_0" arrivalPos="8.80" arrivalSpeed="13.52" duration="156.00" routeLength="812.24" waitSteps="82" timeLoss="96.93" rerouteNo="1" devices="tripinfo_17to19.2 routing_17to19.2" vType="DEFAULT_VEHTYPE" speedFactor="1.00" vaporized=""/>
    <tripinfo id="17to19.4" depart="291.00" departLane="e170_0" departPos="5.10" departSpeed="10.00" departDelay="0.00" arrival="400.00" arrivalLane="dst19_0" arrivalPos="8.80" arrivalSpeed="13.87" duration="109.00" routeLength="812.24" waitSteps="37" timeLoss="50.00" rerouteNo="1" devices="tripinfo_17to19.4 routing_17to19.4" vType="DEFAULT_VEHTYPE" speedFactor="1.00" vaporized=""/>
    <tripinfo id="17to19.3" depart="278.00" departLane="e170_0" departPos="5.10" departSpeed="10.00" departDelay="0.00" arrival="402.00" arrivalLane="dst19_0" arrivalPos="8.80" arrivalSpeed="13.00" duration="124.00" routeLength="812.24" waitSteps="48" timeLoss="64.74" rerouteNo="1" devices="tripinfo_17to19.3 routing_17to19.3" vType="DEFAULT_VEHTYPE" speedFactor="1.00" vaporized=""/>
    <tripinfo id="16to21.0" depart="57.00" departLane="e160_0" departPos="5.10" departSpeed="6.00" departDelay="0.00" arrival="403.00" arrivalLane="dst21_0" arrivalPos="8.53" arrivalSpeed="13.38" duration="346.00" routeLength="2781.99" waitSteps="123" timeLoss="145.32" rerouteNo="1" devices="tripinfo_16to21.0 routing_16to21.0" vType="DEFAULT_VEHTYPE" speedFactor="1.00" vaporized=""/>
    <tripinfo id="16to21.1" depart="63.00" departLane="e160_0" departPos="5.10" departSpeed="6.00" departDelay="0.00" arrival="405.00" arrivalLane="dst21_0" arrivalPos="8.53" arrivalSpeed="13.39" duration="342.00" routeLength="2781.99" waitSteps="115" timeLoss="141.76" rerouteNo="1" devices="tripinfo_16to21.1 routing_16to21.1" vType="DEFAULT_VEHTYPE" speedFactor="1.00" vaporized=""/>
    <tripinfo id="19to17.0" depart="41.00" departLane="e190_0" departPos="5.10" departSpeed="7.00" departDelay="0.00" arrival="405.00" arrivalLane="dst17_0" arrivalPos="8.50" arrivalSpeed="13.79" duration="364.00" routeLength="819.31" waitSteps="296" timeLoss="304.18" rerouteNo="1" devices="tripinfo_19to17.0 routing_19to17.0" vType="DEFAULT_VEHTYPE" speedFactor="1.00" vaporized=""/>
    <tripinfo id="17to19.5" depart="344.00" departLane="e170_0" departPos="5.10" departSpeed="10.00" departDelay="0.00" arrival="406.00" arrivalLane="dst19_0" arrivalPos="8.80" arrivalSpeed="13.48" duration="62.00" routeLength="812.24" waitSteps="0" timeLoss="3.00" rerouteNo="1" devices="tripinfo_17to19.5 routing_17to19.5" vType="DEFAULT_VEHTYPE" speedFactor="1.00" vaporized=""/>
    <tripinfo id="17to22.0" depart="187.00" departLane="e170_0" departPos="5.10" departSpeed="10.00" departDelay="0.00" arrival="406.00" arrivalLane="dst22_0" arrivalPos="8.80" arrivalSpeed="13.58" duration="219.00" routeLength="1692.98" waitSteps="75" timeLoss="96.27" rerouteNo="1" devices="tripinfo_17to22.0 routing_17to22.0" vType="DEFAULT_VEHTYPE" speedFactor="1.00" vaporized=""/>
    <tripinfo id="19to17.1" depart="48.00" departLane="e190_0" departPos="5.10" departSpeed="7.00" departDelay="0.00" arrival="407.00" arrivalLane="dst17_0" arrivalPos="8.50" arrivalSpeed="13.40" duration="359.00" routeLength="819.31" waitSteps="285" timeLoss="299.10" rerouteNo="1" devices="tripinfo_19to17.1 routing_19to17.1" vType="DEFAULT_VEHTYPE" speedFactor="1.00" vaporized=""/>
    <tripinfo id="19to17.2" depart="225.00" departLane="e190_0" departPos="5.10" departSpeed="7.00" departDelay="0.00" arrival="408.00" arrivalLane="dst17_0" arrivalPos="8.50" arrivalSpeed="13.66" duration="183.00" routeLength="819.31" waitSteps="105" timeLoss="123.74" rerouteNo="1" devices="tripinfo_19to17.2 routing_19to17.2" vType="DEFAULT_VEHTYPE" speedFactor="1.00" vaporized=""/>
    <tripinfo id="21to20.0" depart="332.00" departLane="e210_0" departPos="5.10" departSpeed="13.00" departDelay="0.00" arrival="409.00" arrivalLane="dst20_0" arrivalPos="8.57" arrivalSpeed="13.29" duration="77.00" routeLength="997.73" waitSteps="0" timeLoss="4.42" rerouteNo="1" devices="tripinfo_21to20.0 routing_21to20.0" vType="DEFAULT_VEHTYPE" speedFactor="1.00" vaporized=""/>
    <tripinfo id="19to17.4" depart="273.00" departLane="e190_0" departPos="5.10" departSpeed="7.00" departDelay="0.00" arrival="410.00" arrivalLane="dst17_0" arrivalPos="8.50" arrivalSpeed="12.89" duration="137.00" routeLength="819.31" waitSteps="58" timeLoss="77.57" rerouteNo="1" devices="tripinfo_19to17.4 routing_19to17.4" vType="DEFAULT_VEHTYPE" speedFactor="1.00" vaporized=""/>
    <tripinfo id="16to21.2" depart="113.00" departLane="e160_0" departPos="5.10" departSpeed="6.00" departDelay="0.00" arrival="410.00" arrivalLane="dst21_0" arrivalPos="8.53" arrivalSpeed="13.87" duration="297.00" routeLength="2781.99" waitSteps="77" timeLoss="96.08" rerouteNo="1" devices="tripinfo_16to21.2 routing_16to21.2" vType="DEFAULT_VEHTYPE" speedFactor="1.00" vaporized=""/>
    <tripinfo id="16to21.3" depart="132.00" departLane="e160_0" departPos="5.10" departSpeed="6.00" departDelay="0.00" arrival="411.00" arrivalLane="dst21_0" arrivalPos="8.53" arrivalSpeed="13.44" duration="279.00" routeLength="2781.99" waitSteps="61" timeLoss="78.82" rerouteNo="1" devices="tripinfo_16to21.3 routing_16to21.3" vType="DEFAULT_VEHTYPE" speedFactor="1.00" vaporized=""/>
    <tripinfo id="19to17.3" depart="237.00" departLane="e190_0" departPos="5.10" departSpeed="7.00" departDelay="0.00" arrival="412.00" arrivalLane="dst17_0" arrivalPos="8.50" arrivalSpeed="13.43" duration="175.00" routeLength="819.31" waitSteps="97" timeLoss="115.33" rerouteNo="1" devices="tripinfo_19to17.3 routing_19to17.3" vType="DEFAULT_VEHTYPE" speedFactor="1.00" vaporized=""/>
    <tripinfo id="19to17.5" depart="282.00" departLane="e190_0" departPos="5.10" departSpeed="7.00" departDelay="0.00" arrival="413.00" arrivalLane="dst17_0" arrivalPos="8.50" arrivalSpeed="13.72" duration="131.00" routeLength="819.31" waitSteps="50" timeLoss="71.99" rerouteNo="1" devices="tripinfo_19to17.5 routing_19to17.5" vType="DEFAULT_VEHTYPE" speedFactor="1.00" vaporized=""/>
    <tripinfo id="17to21.0" depart="149.00" departLane="e170_0" departPos="5.10" departSpeed="10.00" departDelay="0.00" arrival="413.00" arrivalLane="dst21_0" arrivalPos="8.53" arrivalSpeed="12.75" duration="264.00" routeLength="1839.16" waitSteps="114" timeLoss="131.48" rerouteNo="1" devices="tripinfo_17to21.0 routing_17to21.0" vType="DEFAULT_VEHTYPE" speedFactor="1.00" vaporized=""/>
    <tripinfo id="20to22.3" depart="289.00" departLane="e200_0" departPos="5.10" departSpeed="6.00" departDelay="0.00" arrival="415.00" arrivalLane="dst22_0" arrivalPos="8.80" arrivalSpeed="13.32" duration="126.00" routeLength="860.38" waitSteps="55" timeLoss="63.66" rerouteNo="1" devices="tripinfo_20to22.3 routing_20to22.3" vType="DEFAULT_VEHTYPE" speedFactor="1.00" vaporized=""/>
    <tripinfo id="19to17.6" depart="351.00" departLane="e190_0" departPos="5.10" departSpeed="7.00" departDelay="0.00" arrival="417.00" arrivalLane="dst17_0" arrivalPos="8.50" arrivalSpeed="13.64" duration="66.00" routeLength="819.31" waitSteps="0" timeLoss="6.42" rerouteNo="1" devices="tripinfo_19to17.6 routing_19to17.6" vType="DEFAULT_VEHTYPE" speedFactor="1.00" vaporized=""/>
    <tripinfo id="22to20.2" depart="282.00" departLane="e220_0" departPos="5.10" departSpeed="5.00" departDelay="0.00" arrival="419.00" arrivalLane="dst20_0" arrivalPos="8.57" arrivalSpeed="13.36" duration="137.00" routeLength="860.48" waitSteps="65" timeLoss="74.28" rerouteNo="1" devices="tripinfo_22to20.2 routing_22to20.2" vType="DEFAULT_VEHTYPE" speedFactor="1.00" vaporized=""/>
    <tripinfo id="14to16.0" depart="353.00" departLane="e140_0" departPos="5.10" departSpeed="8.00" departDelay="0.00" arrival="420.00" arrivalLane="dst16_0" arrivalPos="11.34" arrivalSpeed="13.21" duration="67.00" routeLength="880.56" waitSteps="0" timeLoss="3.40" rerouteNo="1" devices="tripinfo_14to16.0 routing_14to16.0" vType="DEFAULT_VEHTYPE" speedFactor="1.00" vaporized=""/>
    <tripinfo id="20to22.4" depart="318.00" departLane="e200_0" departPos="5.10" departSpeed="6.00" departDelay="0.00" arrival="420.00" arrivalLane="dst22_0" arrivalPos="8.80" arrivalSpeed="12.96" duration="102.00" routeLength="860.38" waitSteps="28" timeLoss="39.94" rerouteNo="1" devices="tripinfo_20to22.4 routing_20to22.4" vType="DEFAULT_VEHTYPE" speedFactor="1.00" vaporized=""/>
    <tripinfo id="22to20.3" depart="309.00" departLane="e220_0" departPos="5.10" departSpeed="5.00" departDelay="0.00" arrival="421.00" arrivalLane="dst20_0" arrivalPos="8.57" arrivalSpeed="13.10" duration="112.00" routeLength="860.48" waitSteps="40" timeLoss="49.86" rerouteNo="1" devices="tripinfo_22to20.3 routing_22to20.3" vType="DEFAULT_VEHTYPE" speedFactor="1.00" vaporized=""/>
    <tripinfo id="20to22.5" depart="345.00" departLane="e200_0" departPos="5.10" departSpeed="6.00" departDelay="0.00" arrival="422.00" arrivalLane="dst22_0" arrivalPos="8.80" arrivalSpeed="13.39" duration="77.00" routeLength="860.38" waitSteps="4" timeLoss="14.91" rerouteNo="1" devices="tripinfo_20to22.5 routing_20to22.5" vType="DEFAULT_VEHTYPE" speedFactor="1.00" vaporized=""/>
    <tripinfo id="4to1.0" depart="107.00" departLane="e40_0" departPos="5.10" departSpeed="7.00" departDelay="0.00" arrival="432.00" arrivalLane="dst1_0" arrivalPos="3.70" arrivalSpeed="13.12" duration="325.00" routeLength="923.14" waitSteps="248" timeLoss="257.72" rerouteNo="1" devices="tripinfo_4to1.0 routing_4to1.0" vType="DEFAULT_VEHTYPE" speedFactor="1.00" vaporized=""/>
    <tripinfo id="4to2.0" depart="82.00" departLane="e40_0" departPos="5.10" departSpeed="7.00" departDelay="0.00" arrival="432.00" arrivalLane="dst2_0" arrivalPos="12.10" arrivalSpeed="13.09" duration="350.00" routeLength="931.32" waitSteps="272" timeLoss="282.85" rerouteNo="1" devices="tripinfo_4to2.0 routing_4to2.0" vType="DEFAULT_VEHTYPE" speedFactor="1.00" vaporized=""/>
    <tripinfo id="4to1.1" depart="109.00" departLane="e40_0" departPos="5.10" departSpeed="7.00" departDelay="0.00" arrival="434.00" arrivalLane="dst1_0" arrivalPos="3.70" arrivalSpeed="13.51" duration="325.00" routeLength="923.14" waitSteps="247" timeLoss="258.33" rerouteNo="1" devices="tripinfo_4to1.1 routing_4to1.1" vType="DEFAULT_VEHTYPE" speedFactor="1.00" vaporized=""/>
    <tripinfo id="4to1.2" depart="214.00" departLane="e40_0" departPos="5.10" departSpeed="7.00" departDelay="0.00" arrival="437.00" arrivalLane="dst1_0" arrivalPos="3.70" arrivalSpeed="12.84" duration="223.00" routeLength="923.14" waitSteps="143" timeLoss="156.53" rerouteNo="1" devices="tripinfo_4to1.2 routing_4to1.2" vType="DEFAULT_VEHTYPE" speedFactor="1.00" vaporized=""/>
    <tripinfo id="4to2.1" depart="361.00" departLane="e40_0" departPos="5.10" departSpeed="7.00" departDelay="0.00" arrival="439.00" arrivalLane="dst2_0" arrivalPos="12.10" arrivalSpeed="12.88" duration="78.00" routeLength="931.32" waitSteps="0" timeLoss="10.89" rerouteNo="1" devices="tripinfo_4to2.1 routing_4to2.1" vType="DEFAULT_VEHTYPE" speedFactor="1.00" vaporized=""/>
    <tripinfo id="20to22.6" depart="382.00" departLane="e200_0" departPos="5.10" departSpeed="6.00" departDelay="0.00" arrival="448.00" arrivalLane="dst22_0" arrivalPos="8.80" arrivalSpeed="13.54" duration="66.00" routeLength="860.38" waitSteps="0" timeLoss="4.01" rerouteNo="1" devices="tripinfo_20to22.6 routing_20to22.6" vType="DEFAULT_VEHTYPE" speedFactor="1.00" vaporized=""/>
    <tripinfo id="21to19.0" depart="49.00" departLane="e210_0" departPos="5.10" departSpeed="13.00" departDelay="0.00" arrival="448.00" arrivalLane="dst19_0" arrivalPos="8.80" arrivalSpeed="13.42" duration="399.00" routeLength="1709.39" waitSteps="249" timeLoss="275.80" rerouteNo="1" devices="tripinfo_21to19.0 routing_21to19.0" vType="DEFAULT_VEHTYPE" speedFactor="1.00" vaporized=""/>
    <tripinfo id="20to19.0" depart="108.00" departLane="e200_0" departPos="5.10" departSpeed="6.00" departDelay="0.00" arrival="451.00" arrivalLane="dst19_0" arrivalPos="8.80" arrivalSpeed="12.61" duration="343.00" routeLength="1620.96" waitSteps="206" timeLoss="225.50" rerouteNo="1" devices="tripinfo_20to19.0 routing_20to19.0" vType="DEFAULT_VEHTYPE" speedFactor="1.00" vaporized=""/>
    <tripinfo id="14to11.0" depart="129.00" departLane="e140_0" departPos="5.10" departSpeed="8.00" departDelay="1.00" arrival="452.00" arrivalLane="dst11_0" arrivalPos="8.90" arrivalSpeed="13.74" duration="323.00" routeLength="1756.78" waitSteps="179" timeLoss="195.95" rerouteNo="1" devices="tripinfo_14to11.0 routing_14to11.0" vType="DEFAULT_VEHTYPE" speedFactor="1.00" vaporized=""/>
    <tripinfo id="14to16.1" depart="388.00" departLane="e140_0" departPos="5.10" departSpeed="8.00" departDelay="0.00" arrival="455.00" arrivalLane="dst16_0" arrivalPos="11.34" arrivalSpeed="13.41" duration="67.00" routeLength="880.56" waitSteps="0" timeLoss="3.33" rerouteNo="1" devices="tripinfo_14to16.1 routing_14to16.1" vType="DEFAULT_VEHTYPE" speedFactor="1.00" vaporized=""/>
    <tripinfo id="14to11.1" depart="150.00" departLane="e140_0" departPos="5.10" departSpeed="8.00" departDelay="0.00" arrival="455.00" arrivalLane="dst11_0" arrivalPos="8.90" arrivalSpeed="13.71" duration="305.00" routeLength="1756.78" waitSteps="160" timeLoss="177.79" rerouteNo="1" devices="tripinfo_14to11.1 routing_14to11.1" vType="DEFAULT_VEHTYPE" speedFactor="1.00" vaporized=""/>
    <tripinfo id="16to17.0" depart="191.00" departLane="e160_0" departPos="5.10" departSpeed="6.00" departDelay="0.00" arrival="458.00" arrivalLane="dst17_0" arrivalPos="8.50" arrivalSpeed="12.80" duration="267.00" routeLength="1884.46" waitSteps="116" timeLoss="130.53" rerouteNo="1" devices="tripinfo_16to17.0 routing_16to17.0" vType="DEFAULT_VEHTYPE" speedFactor="1.00" vaporized=""/>
    <tripinfo id="14to16.2" depart="397.00" departLane="e140_0" departPos="5.10" departSpeed="8.00" departDelay="0.00" arrival="464.00" arrivalLane="dst16_0" arrivalPos="11.34" arrivalSpeed="13.69" duration="67.00" routeLength="880.56" waitSteps="0" timeLoss="3.59" rerouteNo="1" devices="tripinfo_14to16.2 routing_14to16.2" vType="DEFAULT_VEHTYPE" speedFactor="1.00" vaporized=""/>
    <tripinfo id="4to2.2" depart="403.00" departLane="e40_0" departPos="5.10" departSpeed="7.00" departDelay="0.00" arrival="474.00" arrivalLane="dst2_0" arrivalPos="12.10" arrivalSpeed="13.77" duration="71.00" routeLength="931.32" waitSteps="0" timeLoss="3.73" rerouteNo="1" devices="tripinfo_4to2.2 routing_4to2.2" vType="DEFAULT_VEHTYPE" speedFactor="1.00" vaporized=""/>
    <tripinfo id="13to16.2" depart="217.00" departLane="e130_0" departPos="5.10" departSpeed="9.00" departDelay="0.00" arrival="517.00" arrivalLane="dst16_0" arrivalPos="11.34" arrivalSpeed="13.76" duration="300.00" routeLength="1653.35" waitSteps="167" timeLoss="180.10" rerouteNo="1" devices="tripinfo_13to16.2 routing_13to16.2" vType="DEFAULT_VEHTYPE" speedFactor="1.00" vaporized=""/>