<?xml version="1.0" encoding="UTF-8"?>

<!-- generated on 04/18/18 19:55:12 by SUMO Version 0.32.0
<?xml version="1.0" encoding="UTF-8"?>

<configuration xmlns:xsi="http://www.w3.org/2001/XMLSchema-instance" xsi:noNamespaceSchemaLocation="http://sumo.dlr.de/xsd/sumoConfiguration.xsd">

    <input>
        <net-file value="tmp/di-tech-2.net.xml"/>
        <route-files value="tmp/di-tech-2.rou.xml"/>
    </input>

    <output>
        <tripinfo-output value="tmp/tripinfo-2.xml"/>
    </output>

    <time>
        <begin value="0.0"/>
    </time>

    <report>
        <no-warnings value="true"/>
        <no-step-log value="true"/>
    </report>

    <traci_server>
        <remote-port value="8826"/>
    </traci_server>

</configuration>
-->

<tripinfos xmlns:xsi="http://www.w3.org/2001/XMLSchema-instance" xsi:noNamespaceSchemaLocation="http://sumo.dlr.de/xsd/tripinfo_file.xsd">
    <tripinfo id="19to17.0" depart="41.00" departLane="e190_0" departPos="5.10" departSpeed="7.00" departDelay="0.00" arrival="104.00" arrivalLane="dst17_0" arrivalPos="8.50" arrivalSpeed="13.25" duration="63.00" routeLength="819.31" waitSteps="0" timeLoss="3.41" rerouteNo="1" devices="tripinfo_19to17.0 routing_19to17.0" vType="DEFAULT_VEHTYPE" speedFactor="1.00" vaporized=""/>
    <tripinfo id="19to17.1" depart="48.00" departLane="e190_0" departPos="5.10" departSpeed="7.00" departDelay="0.00" arrival="111.00" arrivalLane="dst17_0" arrivalPos="8.50" arrivalSpeed="12.79" duration="63.00" routeLength="819.31" waitSteps="0" timeLoss="3.33" rerouteNo="1" devices="tripinfo_19to17.1 routing_19to17.1" vType="DEFAULT_VEHTYPE" speedFactor="1.00" vaporized=""/>
    <tripinfo id="11to13.0" depart="48.00" departLane="e110_0" departPos="5.10" departSpeed="7.00" departDelay="0.00" arrival="120.00" arrivalLane="dst13_0" arrivalPos="8.54" arrivalSpeed="13.24" duration="72.00" routeLength="934.15" waitSteps="0" timeLoss="4.06" rerouteNo="1" devices="tripinfo_11to13.0 routing_11to13.0" vType="DEFAULT_VEHTYPE" speedFactor="1.00" vaporized=""/>
    <tripinfo id="7to10.0" depart="37.00" departLane="e70_0" departPos="5.10" departSpeed="6.00" departDelay="0.00" arrival="134.00" arrivalLane="dst10_0" arrivalPos="17.44" arrivalSpeed="12.72" duration="97.00" routeLength="1241.99" waitSteps="0" timeLoss="7.61" rerouteNo="1" devices="tripinfo_7to10.0 routing_7to10.0" vType="DEFAULT_VEHTYPE" speedFactor="1.00" vaporized=""/>
    <tripinfo id="13to11.0" depart="66.00" departLane="e130_0" departPos="5.10" departSpeed="9.00" departDelay="0.00" arrival="137.00" arrivalLane="dst11_0" arrivalPos="8.90" arrivalSpeed="12.90" duration="71.00" routeLength="933.59" waitSteps="0" timeLoss="3.27" rerouteNo="1" devices="tripinfo_13to11.0 routing_13to11.0" vType="DEFAULT_VEHTYPE" speedFactor="1.00" vaporized=""/>
    <tripinfo id="13to16.0" depart="21.00" departLane="e130_0" departPos="5.10" departSpeed="9.00" departDelay="0.00" arrival="151.00" arrivalLane="dst16_0" arrivalPos="11.34" arrivalSpeed="13.42" duration="130.00" routeLength="1653.35" waitSteps="0" timeLoss="10.71" rerouteNo="1" devices="tripinfo_13to16.0 routing_13to16.0" vType="DEFAULT_VEHTYPE" speedFactor="1.00" vaporized=""/>
    <tripinfo id="13to11.1" depart="80.00" departLane="e130_0" departPos="5.10" departSpeed="9.00" departDelay="0.00" arrival="151.00" arrivalLane="dst11_0" arrivalPos="8.90" arrivalSpeed="13.08" duration="71.00" routeLength="933.59" waitSteps="0" timeLoss="3.70" rerouteNo="1" devices="tripinfo_13to11.1 routing_13to11.1" vType="DEFAULT_VEHTYPE" speedFactor="1.00" vaporized=""/>
    <tripinfo id="19to21.0" depart="0.00" departLane="e190_0" departPos="5.10" departSpeed="7.00" departDelay="0.00" arrival="175.00" arrivalLane="dst21_0" arrivalPos="8.53" arrivalSpeed="12.62" duration="175.00" routeLength="1690.32" waitSteps="38" timeLoss="52.55" rerouteNo="1" devices="tripinfo_19to21.0 routing_19to21.0" vType="DEFAULT_VEHTYPE" speedFactor="1.00" vaporized=""/>
    <tripinfo id="19to21.1" depart="25.00" departLane="e190_0" departPos="5.10" departSpeed="7.00" departDelay="0.00" arrival="177.00" arrivalLane="dst21_0" arrivalPos="8.53" arrivalSpeed="13.34" duration="152.00" routeLength="1690.32" waitSteps="15" timeLoss="30.13" rerouteNo="1" devices="tripinfo_19to21.1 routing_19to21.1" vType="DEFAULT_VEHTYPE" speedFactor="1.00" vaporized=""/>
    <tripinfo id="19to21.2" depart="32.00" departLane="e190_0" departPos="5.10" departSpeed="7.00" departDelay="0.00" arrival="179.00" arrivalLane="dst21_0" arrivalPos="8.53" arrivalSpeed="13.23" duration="147.00" routeLength="1690.32" waitSteps="9" timeLoss="24.92" rerouteNo="1" devices="tripinfo_19to21.2 routing_19to21.2" vType="DEFAULT_VEHTYPE" speedFactor="1.00" vaporized=""/>
    <tripinfo id="1to7.0" depart="8.00" departLane="e10_0" departPos="5.10" departSpeed="10.00" departDelay="0.00" arrival="192.00" arrivalLane="dst7_0" arrivalPos="8.50" arrivalSpeed="13.62" duration="184.00" routeLength="1511.56" waitSteps="62" timeLoss="75.20" rerouteNo="1" devices="tripinfo_1to7.0 routing_1to7.0" vType="DEFAULT_VEHTYPE" speedFactor="1.00" vaporized=""/>
    <tripinfo id="19to21.3" depart="63.00" departLane="e190_0" departPos="5.10" departSpeed="7.00" departDelay="0.00" arrival="192.00" arrivalLane="dst21_0" arrivalPos="8.53" arrivalSpeed="13.44" duration="129.00" routeLength="1690.32" waitSteps="0" timeLoss="7.18" rerouteNo="1" devices="tripinfo_19to21.3 routing_19to21.3" vType="DEFAULT_VEHTYPE" speedFactor="1.00" vaporized=""/>
    <tripinfo id="8to1.0" depart="38.00" departLane="e80_0" departPos="5.10" departSpeed="6.00" departDelay="0.00" arrival="198.00" arrivalLane="dst1_0" arrivalPos="3.70" arrivalSpeed="13.34" duration="160.00" routeLength="2080.54" waitSteps="0" timeLoss="9.58" rerouteNo="1" devices="tripinfo_8to1.0 routing_8to1.0" vType="DEFAULT_VEHTYPE" speedFactor="1.00" vaporized=""/>
    <tripinfo id="11to1.0" depart="30.00" departLane="e110_0" departPos="5.10" departSpeed="7.00" departDelay="0.00" arrival="214.00" arrivalLane="dst1_0" arrivalPos="3.70" arrivalSpeed="12.70" duration="184.00" routeLength="2417.16" waitSteps="0" timeLoss="9.75" rerouteNo="1" devices="tripinfo_11to1.0 routing_11to1.0" vType="DEFAULT_VEHTYPE" speedFactor="1.00" vaporized=""/>
    <tripinfo id="8to2.0" depart="58.00" departLane="e80_0" departPos="5.10" departSpeed="6.00" departDelay="0.00" arrival="218.00" arrivalLane="dst2_0" arrivalPos="12.10" arrivalSpeed="13.10" duration="160.00" routeLength="2074.77" waitSteps="0" timeLoss="10.74" rerouteNo="1" devices="tripinfo_8to2.0 routing_8to2.0" vType="DEFAULT_VEHTYPE" speedFactor="1.00" vaporized=""/>
    <tripinfo id="19to21.4" depart="90.00" departLane="e190_0" departPos="5.10" departSpeed="7.00" departDelay="0.00" arrival="220.00" arrivalLane="dst21_0" arrivalPos="8.53" arrivalSpeed="12.76" duration="130.00" routeLength="1690.32" waitSteps="0" timeLoss="8.30" rerouteNo="1" devices="tripinfo_19to21.4 routing_19to21.4" vType="DEFAULT_VEHTYPE" speedFactor="1.00" vaporized=""/>
    <tripinfo id="20to22.0" depart="108.00" departLane="e200_0" departPos="5.10" departSpeed="6.00" departDelay="0.00" arrival="226.00" arrivalLane="dst22_0" arrivalPos="8.80" arrivalSpeed="12.86" duration="118.00" routeLength="860.38" waitSteps="46" timeLoss="55.26" rerouteNo="1" devices="tripinfo_20to22.0 routing_20to22.0" vType="DEFAULT_VEHTYPE" speedFactor="1.00" vaporized=""/>
    <tripinfo id="20to22.1" depart="165.00" departLane="e200_0" departPos="5.10" departSpeed="6.00" departDelay="0.00" arrival="231.00" arrivalLane="dst22_0" arrivalPos="8.80" arrivalSpeed="13.73" duration="66.00" routeLength="860.38" waitSteps="0" timeLoss="3.71" rerouteNo="1" devices="tripinfo_20to22.1 routing_20to22.1" vType="DEFAULT_VEHTYPE" speedFactor="1.00" vaporized=""/>
    <tripinfo id="22to20.0" depart="191.00" departLane="e220_0" departPos="5.10" departSpeed="5.00" departDelay="0.00" arrival="257.00" arrivalLane="dst20_0" arrivalPos="8.57" arrivalSpeed="13.67" duration="66.00" routeLength="860.48" waitSteps="0" timeLoss="4.02" rerouteNo="1" devices="tripinfo_22to20.0 routing_22to20.0" vType="DEFAULT_VEHTYPE" speedFactor="1.00" vaporized=""/>
    <tripinfo id="20to22.2" depart="194.00" departLane="e200_0" departPos="5.10" departSpeed="6.00" departDelay="0.00" arrival="260.00" arrivalLane="dst22_0" arrivalPos="8.80" arrivalSpeed="13.34" duration="66.00" routeLength="860.38" waitSteps="0" timeLoss="3.84" rerouteNo="1" devices="tripinfo_20to22.2 routing_20to22.2" vType="DEFAULT_VEHTYPE" speedFactor="1.00" vaporized=""/>
    <tripinfo id="11to1.1" depart="86.00" departLane="e110_0" departPos="5.10" departSpeed="7.00" departDelay="0.00" arrival="270.00" arrivalLane="dst1_0" arrivalPos="3.70" arrivalSpeed="12.81" duration="184.00" routeLength="2417.16" waitSteps="0" timeLoss="9.86" rerouteNo="1" devices="tripinfo_11to1.1 routing_11to1.1" vType="DEFAULT_VEHTYPE" speedFactor="1.00" vaporized=""/>
    <tripinfo id="21to17.0" depart="37.00" departLane="e210_0" departPos="5.10" departSpeed="13.00" departDelay="0.00" arrival="271.00" arrivalLane="dst17_0" arrivalPos="8.50" arrivalSpeed="13.52" duration="234.00" routeLength="1836.68" waitSteps="79" timeLoss="101.24" rerouteNo="1" devices="tripinfo_21to17.0 routing_21to17.0" vType="DEFAULT_VEHTYPE" speedFactor="1.00" vaporized=""/>
    <tripinfo id="11to1.2" depart="96.00" departLane="e110_0" departPos="5.10" departSpeed="7.00" departDelay="0.00" arrival="281.00" arrivalLane="dst1_0" arrivalPos="3.70" arrivalSpeed="13.52" duration="185.00" routeLength="2417.16" waitSteps="0" timeLoss="10.79" rerouteNo="1" devices="tripinfo_11to1.2 routing_11to1.2" vType="DEFAULT_VEHTYPE" speedFactor="1.00" vaporized=""/>
    <tripinfo id="10to16.0" depart="121.00" departLane="e100_0" departPos="5.10" departSpeed="5.00" departDelay="0.00" arrival="281.00" arrivalLane="dst16_0" arrivalPos="11.34" arrivalSpeed="13.10" duration="160.00" routeLength="2054.27" waitSteps="0" timeLoss="11.28" rerouteNo="1" devices="tripinfo_10to16.0 routing_10to16.0" vType="DEFAULT_VEHTYPE" speedFactor="1.00" vaporized=""/>
    <tripinfo id="1to8.0" depart="15.00" departLane="e10_0" departPos="5.10" departSpeed="10.00" departDelay="0.00" arrival="299.00" arrivalLane="dst8_0" arrivalPos="14.38" arrivalSpeed="13.02" duration="284.00" routeLength="2099.36" waitSteps="106" timeLoss="132.35" rerouteNo="1" devices="tripinfo_1to8.0 routing_1to8.0" vType="DEFAULT_VEHTYPE" speedFactor="1.00" vaporized=""/>
    <tripinfo id="20to22.3" depart="238.00" departLane="e200_0" departPos="5.10" departSpeed="6.00" departDelay="0.00" arrival="305.00" arrivalLane="dst22_0" arrivalPos="8.80" arrivalSpeed="13.83" duration="67.00" routeLength="860.38" waitSteps="0" timeLoss="4.26" rerouteNo="1" devices="tripinfo_20to22.3 routing_20to22.3" vType="DEFAULT_VEHTYPE" speedFactor="1.00" vaporized=""/>
    <tripinfo id="8to16.0" depart="158.00" departLane="e80_0" departPos="5.10" departSpeed="6.00" departDelay="0.00" arrival="322.00" arrivalLane="dst16_0" arrivalPos="11.34" arrivalSpeed="12.97" duration="164.00" routeLength="2112.53" waitSteps="0" timeLoss="11.88" rerouteNo="1" devices="tripinfo_8to16.0 routing_8to16.0" vType="DEFAULT_VEHTYPE" speedFactor="1.00" vaporized=""/>
    <tripinfo id="8to1.1" depart="171.00" departLane="e80_0" departPos="5.10" departSpeed="6.00" departDelay="0.00" arrival="331.00" arrivalLane="dst1_0" arrivalPos="3.70" arrivalSpeed="12.65" duration="160.00" routeLength="2080.54" waitSteps="0" timeLoss="9.83" rerouteNo="1" devices="tripinfo_8to1.1 routing_8to1.1" vType="DEFAULT_VEHTYPE" speedFactor="1.00" vaporized=""/>
    <tripinfo id="21to22.0" depart="52.00" departLane="e210_0" departPos="5.10" departSpeed="13.00" departDelay="0.00" arrival="333.00" arrivalLane="dst22_0" arrivalPos="8.80" arrivalSpeed="12.71" duration="281.00" routeLength="944.64" waitSteps="196" timeLoss="212.36" rerouteNo="1" devices="tripinfo_21to22.0 routing_21to22.0" vType="DEFAULT_VEHTYPE" speedFactor="1.00" vaporized=""/>
    <tripinfo id="20to14.0" depart="33.00" departLane="e200_0" departPos="5.10" departSpeed="6.00" departDelay="0.00" arrival="341.00" arrivalLane="dst14_0" arrivalPos="1.01" arrivalSpeed="13.78" duration="308.00" routeLength="2770.66" waitSteps="89" timeLoss="108.58" rerouteNo="1" devices="tripinfo_20to14.0 routing_20to14.0" vType="DEFAULT_VEHTYPE" speedFactor="1.00" vaporized=""/>
    <tripinfo id="17to19.1" depart="123.00" departLane="e170_0" departPos="5.10" departSpeed="10.00" departDelay="0.00" arrival="345.00" arrivalLane="dst19_0" arrivalPos="8.80" arrivalSpeed="13.45" duration="222.00" routeLength="812.24" waitSteps="153" timeLoss="163.15" rerouteNo="1" devices="tripinfo_17to19.1 routing_17to19.1" vType="DEFAULT_VEHTYPE" speedFactor="1.00" vaporized=""/>
    <tripinfo id="20to14.1" depart="52.00" departLane="e200_0" departPos="5.10" departSpeed="6.00" departDelay="2.00" arrival="346.00" arrivalLane="dst14_0" arrivalPos="1.01" arrivalSpeed="13.51" duration="294.00" routeLength="2770.66" waitSteps="71" timeLoss="94.39" rerouteNo="1" devices="tripinfo_20to14.1 routing_20to14.1" vType="DEFAULT_VEHTYPE" speedFactor="1.00" vaporized=""/>
    <tripinfo id="17to19.3" depart="152.00" departLane="e170_0" departPos="5.10" departSpeed="10.00" departDelay="0.00" arrival="347.00" arrivalLane="dst19_0" arrivalPos="8.80" arrivalSpeed="13.76" duration="195.00" routeLength="812.24" waitSteps="126" timeLoss="136.09" rerouteNo="1" devices="tripinfo_17to19.3 routing_17to19.3" vType="DEFAULT_VEHTYPE" speedFactor="1.00" vaporized=""/>
    <tripinfo id="10to16.1" depart="188.00" departLane="e100_0" departPos="5.10" departSpeed="5.00" departDelay="0.00" arrival="348.00" arrivalLane="dst16_0" arrivalPos="11.34" arrivalSpeed="13.45" duration="160.00" routeLength="2054.27" waitSteps="0" timeLoss="12.01" rerouteNo="1" devices="tripinfo_10to16.1 routing_10to16.1" vType="DEFAULT_VEHTYPE" speedFactor="1.00" vaporized=""/>
    <tripinfo id="17to19.0" depart="117.00" departLane="e170_0" departPos="5.10" departSpeed="10.00" departDelay="0.00" arrival="349.00" arrivalLane="dst19_0" arrivalPos="8.80" arrivalSpeed="13.64" duration="232.00" routeLength="812.24" waitSteps="162" timeLoss="172.72" rerouteNo="1" devices="tripinfo_17to19.0 routing_17to19.0" vType="DEFAULT_VEHTYPE" speedFactor="1.00" vaporized=""/>
    <tripinfo id="17to19.4" depart="242.00" departLane="e170_0" departPos="5.10" departSpeed="10.00" departDelay="0.00" arrival="350.00" arrivalLane="dst19_0" arrivalPos="8.80" arrivalSpeed="13.31" duration="108.00" routeLength="812.24" waitSteps="37" timeLoss="49.41" rerouteNo="1" devices="tripinfo_17to19.4 routing_17to19.4" vType="DEFAULT_VEHTYPE" speedFactor="1.00" vaporized=""/>
    <tripinfo id="17to19.2" depart="139.00" departLane="e170_0" departPos="5.10" departSpeed="10.00" departDelay="0.00" arrival="352.00" arrivalLane="dst19_0" arrivalPos="8.80" arrivalSpeed="12.73" duration="213.00" routeLength="812.24" waitSteps="142" timeLoss="154.19" rerouteNo="1" devices="tripinfo_17to19.2 routing_17to19.2" vType="DEFAULT_VEHTYPE" speedFactor="1.00" vaporized=""/>
    <tripinfo id="17to19.7" depart="261.00" departLane="e170_0" departPos="5.10" departSpeed="10.00" departDelay="0.00" arrival="354.00" arrivalLane="dst19_0" arrivalPos="8.80" arrivalSpeed="13.80" duration="93.00" routeLength="812.24" waitSteps="25" timeLoss="33.97" rerouteNo="1" devices="tripinfo_17to19.7 routing_17to19.7" vType="DEFAULT_VEHTYPE" speedFactor="1.00" vaporized=""/>
    <tripinfo id="19to17.2" depart="116.00" departLane="e190_0" departPos="5.10" departSpeed="7.00" departDelay="0.00" arrival="355.00" arrivalLane="dst17_0" arrivalPos="8.50" arrivalSpeed="13.78" duration="239.00" routeLength="819.31" waitSteps="172" timeLoss="179.91" rerouteNo="1" devices="tripinfo_19to17.2 routing_19to17.2" vType="DEFAULT_VEHTYPE" speedFactor="1.00" vaporized=""/>
    <tripinfo id="17to19.6" depart="253.00" departLane="e170_0" departPos="5.10" departSpeed="10.00" departDelay="1.00" arrival="356.00" arrivalLane="dst19_0" arrivalPos="8.80" arrivalSpeed="12.84" duration="103.00" routeLength="812.24" waitSteps="27" timeLoss="43.73" rerouteNo="1" devices="tripinfo_17to19.6 routing_17to19.6" vType="DEFAULT_VEHTYPE" speedFactor="1.00" vaporized=""/>
    <tripinfo id="19to17.3" depart="144.00" departLane="e190_0" departPos="5.10" departSpeed="7.00" departDelay="0.00" arrival="357.00" arrivalLane="dst17_0" arrivalPos="8.50" arrivalSpeed="12.95" duration="213.00" routeLength="819.31" waitSteps="141" timeLoss="153.76" rerouteNo="1" devices="tripinfo_19to17.3 routing_19to17.3" vType="DEFAULT_VEHTYPE" speedFactor="1.00" vaporized=""/>
    <tripinfo id="17to19.5" depart="251.00" departLane="e170_0" departPos="5.10" departSpeed="10.00" departDelay="0.00" arrival="357.00" arrivalLane="dst19_0" arrivalPos="8.80" arrivalSpeed="13.33" duration="106.00" routeLength="812.24" waitSteps="31" timeLoss="47.48" rerouteNo="1" devices="tripinfo_17to19.5 routing_17to19.5" vType="DEFAULT_VEHTYPE" speedFactor="1.00" vaporized=""/>
    <tripinfo id="17to19.8" depart="297.00" departLane="e170_0" departPos="5.10" departSpeed="10.00" departDelay="0.00" arrival="361.00" arrivalLane="dst19_0" arrivalPos="8.80" arrivalSpeed="13.88" duration="64.00" routeLength="812.24" waitSteps="0" timeLoss="4.72" rerouteNo="1" devices="tripinfo_17to19.8 routing_17to19.8" vType="DEFAULT_VEHTYPE" speedFactor="1.00" vaporized=""/>
    <tripinfo id="16to22.0" depart="74.00" departLane="e160_0" departPos="5.10" departSpeed="6.00" departDelay="0.00" arrival="369.00" arrivalLane="dst22_0" arrivalPos="8.80" arrivalSpeed="13.07" duration="295.00" routeLength="2635.81" waitSteps="78" timeLoss="105.29" rerouteNo="1" devices="tripinfo_16to22.0 routing_16to22.0" vType="DEFAULT_VEHTYPE" speedFactor="1.00" vaporized=""/>
    <tripinfo id="1to2.0" depart="17.00" departLane="e10_0" departPos="5.10" departSpeed="10.00" departDelay="1.00" arrival="374.00" arrivalLane="dst2_0" arrivalPos="12.10" arrivalSpeed="12.82" duration="357.00" routeLength="1006.06" waitSteps="270" timeLoss="284.59" rerouteNo="1" devices="tripinfo_1to2.0 routing_1to2.0" vType="DEFAULT_VEHTYPE" speedFactor="1.00" vaporized=""/>
    <tripinfo id="16to22.1" depart="122.00" departLane="e160_0" departPos="5.10" departSpeed="6.00" departDelay="0.00" arrival="374.00" arrivalLane="dst22_0" arrivalPos="8.80" arrivalSpeed="12.93" duration="252.00" routeLength="2635.81" waitSteps="38" timeLoss="62.02" rerouteNo="1" devices="tripinfo_16to22.1 routing_16to22.1" vType="DEFAULT_VEHTYPE" speedFactor="1.00" vaporized=""/>
    <tripinfo id="17to19.9" depart="312.00" departLane="e170_0" departPos="5.10" departSpeed="10.00" departDelay="0.00" arrival="374.00" arrivalLane="dst19_0" arrivalPos="8.80" arrivalSpeed="13.89" duration="62.00" routeLength="812.24" waitSteps="0" timeLoss="2.60" rerouteNo="1" devices="tripinfo_17to19.9 routing_17to19.9" vType="DEFAULT_VEHTYPE" speedFactor="1.00" vaporized=""/>
    <tripinfo id="19to17.4" depart="312.00" departLane="e190_0" departPos="5.10" departSpeed="7.00" departDelay="0.00" arrival="375.00" arrivalLane="dst17_0" arrivalPos="8.50" arrivalSpeed="12.84" duration="63.00" routeLength="819.31" waitSteps="0" timeLoss="3.31" rerouteNo="1" devices="tripinfo_19to17.4 routing_19to17.4" vType="DEFAULT_VEHTYPE" speedFactor="1.00" vaporized=""/>
    <tripinfo id="21to20.0" depart="159.00" departLane="e210_0" departPos="5.10" departSpeed="13.00" departDelay="0.00" arrival="375.00" arrivalLane="dst20_0" arrivalPos="8.57" arrivalSpeed="12.72" duration="216.00" routeLength="997.73" waitSteps="128" timeLoss="143.62" rerouteNo="1" devices="tripinfo_21to20.0 routing_21to20.0" vType="DEFAULT_VEHTYPE" speedFactor="1.00" vaporized=""/>
    <tripinfo id="16to21.0" depart="57.00" departLane="e160_0" departPos="5.10" departSpeed="6.00" departDelay="0.00" arrival="376.00" arrivalLane="dst21_0" arrivalPos="8.53" arrivalSpeed="13.55" duration="319.00" routeLength="2781.99" waitSteps="97" timeLoss="117.94" rerouteNo="1" devices="tripinfo_16to21.0 routing_16to21.0" vType="DEFAULT_VEHTYPE" speedFactor="1.00" vaporized=""/>
    <tripinfo id="16to21.1" depart="63.00" departLane="e160_0" departPos="5.10" departSpeed="6.00" departDelay="0.00" arrival="378.00" arrivalLane="dst21_0" arrivalPos="8.53" arrivalSpeed="13.29" duration="315.00" routeLength="2781.99" waitSteps="89" timeLoss="114.46" rerouteNo="1" devices="tripinfo_16to21.1 routing_16to21.1" vType="DEFAULT_VEHTYPE" speedFactor="1.00" vaporized=""/>
    <tripinfo id="19to17.5" depart="318.00" departLane="e190_0" departPos="5.10" departSpeed="7.00" departDelay="0.00" arrival="381.00" arrivalLane="dst17_0" arrivalPos="8.50" arrivalSpeed="13.63" duration="63.00" routeLength="819.31" waitSteps="0" timeLoss="3.95" rerouteNo="1" devices="tripinfo_19to17.5 routing_19to17.5" vType="DEFAULT_VEHTYPE" speedFactor="1.00" vaporized=""/>
    <tripinfo id="16to21.2" depart="105.00" departLane="e160_0" departPos="5.10" departSpeed="6.00" departDelay="0.00" arrival="382.00" arrivalLane="dst21_0" arrivalPos="8.53" arrivalSpeed="13.07" duration="277.00" routeLength="2781.99" waitSteps="48" timeLoss="75.94" rerouteNo="1" devices="tripinfo_16to21.2 routing_16to21.2" vType="DEFAULT_VEHTYPE" speedFactor="1.00" vaporized=""/>
    <tripinfo id="19to17.6" depart="322.00" departLane="e190_0" departPos="5.10" departSpeed="7.00" departDelay="0.00" arrival="385.00" arrivalLane="dst17_0" arrivalPos="8.50" arrivalSpeed="12.98" duration="63.00" routeLength="819.31" waitSteps="0" timeLoss="3.39" rerouteNo="1" devices="tripinfo_19to17.6 routing_19to17.6" vType="DEFAULT_VEHTYPE" speedFactor="1.00" vaporized=""/>
    <tripinfo id="16to21.3" depart="136.00" departLane="e160_0" departPos="5.10" departSpeed="6.00" departDelay="0.00" arrival="386.00" arrivalLane="dst21_0" arrivalPos="8.53" arrivalSpeed="13.74" duration="250.00" routeLength="2781.99" waitSteps="30" timeLoss="49.79" rerouteNo="1" devices="tripinfo_16to21.3 routing_16to21.3" vType="DEFAULT_VEHTYPE" speedFactor="1.00" vaporized=""/>
    <tripinfo id="16to21.4" depart="159.00" departLane="e160_0" departPos="5.10" departSpeed="6.00" departDelay="0.00" arrival="389.00" arrivalLane="dst21_0" arrivalPos="8.53" arrivalSpeed="13.74" duration="230.00" routeLength="2781.99" waitSteps="8" timeLoss="28.95" rerouteNo="1" devices="tripinfo_16to21.4 routing_16to21.4" vType="DEFAULT_VEHTYPE" speedFactor="1.00" vaporized=""/>
    <tripinfo id="16to21.5" depart="165.00" departLane="e160_0" departPos="5.10" departSpeed="6.00" departDelay="0.00" arrival="390.00" arrivalLane="dst21_0" arrivalPos="8.53" arrivalSpeed="13.19" duration="225.00" routeLength="2781.99" waitSteps="3" timeLoss="24.85" rerouteNo="1" devices="tripinfo_16to21.5 routing_16to21.5" vType="DEFAULT_VEHTYPE" speedFactor="1.00" vaporized=""/>
    <tripinfo id="11to4.0" depart="150.00" departLane="e110_0" departPos="5.10" departSpeed="7.00" departDelay="3.00" arrival="394.00" arrivalLane="dst4_0" arrivalPos="8.50" arrivalSpeed="13.63" duration="244.00" routeLength="2346.86" waitSteps="58" timeLoss="74.80" rerouteNo="1" devices="tripinfo_11to4.0 routing_11to4.0" vType="DEFAULT_VEHTYPE" speedFactor="1.00" vaporized=""/>
    <tripinfo id="19to17.7" depart="336.00" departLane="e190_0" departPos="5.10" departSpeed="7.00" departDelay="0.00" arrival="399.00" arrivalLane="dst17_0" arrivalPos="8.50" arrivalSpeed="13.12" duration="63.00" routeLength="819.31" waitSteps="0" timeLoss="3.90" rerouteNo="1" devices="tripinfo_19to17.7 routing_19to17.7" vType="DEFAULT_VEHTYPE" speedFactor="1.00" vaporized=""/>
    <tripinfo id="17to21.0" depart="135.00" departLane="e170_0" departPos="5.10" departSpeed="10.00" departDelay="0.00" arrival="404.00" arrivalLane="dst21_0" arrivalPos="8.53" arrivalSpeed="13.35" duration="269.00" routeLength="1839.16" waitSteps="124" timeLoss="135.79" rerouteNo="1" devices="tripinfo_17to21.0 routing_17to21.0" vType="DEFAULT_VEHTYPE" speedFactor="1.00" vaporized=""/>
    <tripinfo id="17to21.1" depart="184.00" departLane="e170_0" departPos="5.10" departSpeed="10.00" departDelay="0.00" arrival="407.00" arrivalLane="dst21_0" arrivalPos="8.53" arrivalSpeed="13.63" duration="223.00" routeLength="1839.16" waitSteps="77" timeLoss="90.20" rerouteNo="1" devices="tripinfo_17to21.1 routing_17to21.1" vType="DEFAULT_VEHTYPE" speedFactor="1.00" vaporized=""/>
    <tripinfo id="17to21.2" depart="215.00" departLane="e170_0" departPos="5.10" departSpeed="10.00" departDelay="0.00" arrival="409.00" arrivalLane="dst21_0" arrivalPos="8.53" arrivalSpeed="13.29" duration="194.00" routeLength="1839.16" waitSteps="47" timeLoss="60.99" rerouteNo="1" devices="tripinfo_17to21.2 routing_17to21.2" vType="DEFAULT_VEHTYPE" speedFactor="1.00" vaporized=""/>
    <tripinfo id="19to17.8" depart="348.00" departLane="e190_0" departPos="5.10" departSpeed="7.00" departDelay="0.00" arrival="411.00" arrivalLane="dst17_0" arrivalPos="8.50" arrivalSpeed="13.56" duration="63.00" routeLength="819.31" waitSteps="0" timeLoss="3.43" rerouteNo="1" devices="tripinfo_19to17.8 routing_19to17.8" vType="DEFAULT_VEHTYPE" speedFactor="1.00" vaporized=""/>
    <tripinfo id="17to21.3" depart="216.00" departLane="e170_0" departPos="5.10" departSpeed="10.00" departDelay="0.00" arrival="411.00" arrivalLane="dst21_0" arrivalPos="8.53" arrivalSpeed="12.93" duration="195.00" routeLength="1839.16" waitSteps="46" timeLoss="61.93" rerouteNo="1" devices="tripinfo_17to21.3 routing_17to21.3" vType="DEFAULT_VEHTYPE" speedFactor="1.00" vaporized=""/>
    <tripinfo id="19to17.9" depart="354.00" departLane="e190_0" departPos="5.10" departSpeed="7.00" departDelay="0.00" arrival="417.00" arrivalLane="dst17_0" arrivalPos="8.50" arrivalSpeed="12.68" duration="63.00" routeLength="819.31" waitSteps="0" timeLoss="3.37" rerouteNo="1" devices="tripinfo_19to17.9 routing_19to17.9" vType="DEFAULT_VEHTYPE" speedFactor="1.00" vaporized=""/>
    <tripinfo id="8to2.1" depart="251.00" departLane="e80_0" departPos="5.10" departSpeed="6.00" departDelay="0.00" arrival="418.00" arrivalLane="dst2_0" arrivalPos="12.10" arrivalSpeed="13.49" duration="167.00" routeLength="2074.77" waitSteps="2" timeLoss="17.05" rerouteNo="1" devices="tripinfo_8to2.1 routing_8to2.1" vType="DEFAULT_VEHTYPE" speedFactor="1.00" vaporized=""/>
    <tripinfo id="19to17.10" depart="356.00" departLane="e190_0" departPos="5.10" departSpeed="7.00" departDelay="0.00" arrival="419.00" arrivalLane="dst17_0" arrivalPos="8.50" arrivalSpeed="13.07" duration="63.00" routeLength="819.31" waitSteps="0" timeLoss="3.93" rerouteNo="1" devices="tripinfo_19to17.10 routing_19to17.10" vType="DEFAULT_VEHTYPE" speedFactor="1.00" vaporized=""/>
    <tripinfo id="4to1.0" depart="233.00" departLane="e40_0" departPos="5.10" departSpeed="7.00" departDelay="1.00" arrival="421.00" arrivalLane="dst1_0" arrivalPos="3.70" arrivalSpeed="12.94" duration="188.00" routeLength="923.14" waitSteps="111" timeLoss="121.39" rerouteNo="1" devices="tripinfo_4to1.0 routing_4to1.0" vType="DEFAULT_VEHTYPE" speedFactor="1.00" vaporized=""/>
    <tripinfo id="4to2.0" depart="82.00" departLane="e40_0" departPos="5.10" departSpeed="7.00" departDelay="0.00" arrival="422.00" arrivalLane="dst2_0" arrivalPos="12.10" arrivalSpeed="13.65" duration="340.00" routeLength="931.32" waitSteps="262" timeLoss="272.51" rerouteNo="1" devices="tripinfo_4to2.0 routing_4to2.0" vType="DEFAULT_VEHTYPE" speedFactor="1.00" vaporized=""/>
    <tripinfo id="17to19.10" depart="361.00" departLane="e170_0" departPos="5.10" departSpeed="10.00" departDelay="0.00" arrival="423.00" arrivalLane="dst19_0" arrivalPos="8.80" arrivalSpeed="13.50" duration="62.00" routeLength="812.24" waitSteps="0" timeLoss="2.96" rerouteNo="1" devices="tripinfo_17to19.10 routing_17to19.10" vType="DEFAULT_VEHTYPE" speedFactor="1.00" vaporized=""/>
    <tripinfo id="19to21.5" depart="161.00" departLane="e190_0" departPos="5.10" departSpeed="7.00" departDelay="0.00" arrival="423.00" arrivalLane="dst21_0" arrivalPos="8.53" arrivalSpeed="13.45" duration="262.00" routeLength="1690.32" waitSteps="129" timeLoss="139.96" rerouteNo="1" devices="tripinfo_19to21.5 routing_19to21.5" vType="DEFAULT_VEHTYPE" speedFactor="1.00" vaporized=""/>
    <tripinfo id="4to2.1" depart="108.00" departLane="e40_0" departPos="5.10" departSpeed="7.00" departDelay="1.00" arrival="425.00" arrivalLane="dst2_0" arrivalPos="12.10" arrivalSpeed="12.71" duration="317.00" routeLength="931.32" waitSteps="239" timeLoss="249.66" rerouteNo="1" devices="tripinfo_4to2.1 routing_4to2.1" vType="DEFAULT_VEHTYPE" speedFactor="1.00" vaporized=""/>
    <tripinfo id="19to21.6" depart="230.00" departLane="e190_0" departPos="5.10" departSpeed="7.00" departDelay="0.00" arrival="426.00" arrivalLane="dst21_0" arrivalPos="8.53" arrivalSpeed="13.23" duration="196.00" routeLength="1690.32" waitSteps="61" timeLoss="73.68" rerouteNo="1" devices="tripinfo_19to21.6 routing_19to21.6" vType="DEFAULT_VEHTYPE" speedFactor="1.00" vaporized=""/>
    <tripinfo id="19to21.7" depart="256.00" departLane="e190_0" departPos="5.10" departSpeed="7.00" departDelay="0.00" arrival="428.00" arrivalLane="dst21_0" arrivalPos="8.53" arrivalSpeed="13.24" duration="172.00" routeLength="1690.32" waitSteps="36" timeLoss="50.00" rerouteNo="1" devices="tripinfo_19to21.7 routing_19to21.7" vType="DEFAULT_VEHTYPE" speedFactor="1.00" vaporized=""/>
    <tripinfo id="19to17.11" depart="367.00" departLane="e190_0" departPos="5.10" departSpeed="7.00" departDelay="0.00" arrival="430.00" arrivalLane="dst17_0" arrivalPos="8.50" arrivalSpeed="12.98" duration="63.00" routeLength="819.31" waitSteps="0" timeLoss="3.39" rerouteNo="1" devices="tripinfo_19to17.11 routing_19to17.11" vType="DEFAULT_VEHTYPE" speedFactor="1.00" vaporized=""/>