<?xml version="1.0" encoding="UTF-8"?>

<!-- generated on 04/18/18 19:55:12 by SUMO Version 0.32.0
<?xml version="1.0" encoding="UTF-8"?>

<configuration xmlns:xsi="http://www.w3.org/2001/XMLSchema-instance" xsi:noNamespaceSchemaLocation="http://sumo.dlr.de/xsd/sumoConfiguration.xsd">

    <input>
        <net-file value="tmp/di-tech-3.net.xml"/>
        <route-files value="tmp/di-tech-3.rou.xml"/>
    </input>

    <output>
        <tripinfo-output value="tmp/tripinfo-3.xml"/>
    </output>

    <time>
        <begin value="0.0"/>
    </time>

    <report>
        <no-warnings value="true"/>
        <no-step-log value="true"/>
    </report>

    <traci_server>
        <remote-port value="8827"/>
    </traci_server>

</configuration>
-->

<tripinfos xmlns:xsi="http://www.w3.org/2001/XMLSchema-instance" xsi:noNamespaceSchemaLocation="http://sumo.dlr.de/xsd/tripinfo_file.xsd">
    <tripinfo id="11to13.0" depart="48.00" departLane="e110_0" departPos="5.10" departSpeed="7.00" departDelay="0.00" arrival="119.00" arrivalLane="dst13_0" arrivalPos="8.54" arrivalSpeed="13.87" duration="71.00" routeLength="934.15" waitSteps="0" timeLoss="3.55" rerouteNo="1" devices="tripinfo_11to13.0 routing_11to13.0" vType="DEFAULT_VEHTYPE" speedFactor="1.00" vaporized=""/>
    <tripinfo id="1to7.0" depart="8.00" departLane="e10_0" departPos="5.10" departSpeed="10.00" departDelay="0.00" arrival="125.00" arrivalLane="dst7_0" arrivalPos="8.50" arrivalSpeed="13.33" duration="117.00" routeLength="1511.56" waitSteps="0" timeLoss="7.60" rerouteNo="1" devices="tripinfo_1to7.0 routing_1to7.0" vType="DEFAULT_VEHTYPE" speedFactor="1.00" vaporized=""/>
    <tripinfo id="7to10.0" depart="37.00" departLane="e70_0" departPos="5.10" departSpeed="6.00" departDelay="0.00" arrival="134.00" arrivalLane="dst10_0" arrivalPos="17.44" arrivalSpeed="12.72" duration="97.00" routeLength="1241.99" waitSteps="0" timeLoss="7.61" rerouteNo="1" devices="tripinfo_7to10.0 routing_7to10.0" vType="DEFAULT_VEHTYPE" speedFactor="1.00" vaporized=""/>
    <tripinfo id="19to17.1" depart="48.00" departLane="e190_0" departPos="5.10" departSpeed="7.00" departDelay="0.00" arrival="146.00" arrivalLane="dst17_0" arrivalPos="8.50" arrivalSpeed="13.66" duration="98.00" routeLength="819.31" waitSteps="27" timeLoss="38.59" rerouteNo="1" devices="tripinfo_19to17.1 routing_19to17.1" vType="DEFAULT_VEHTYPE" speedFactor="1.00" vaporized=""/>
    <tripinfo id="19to17.0" depart="41.00" departLane="e190_0" departPos="5.10" departSpeed="7.00" departDelay="0.00" arrival="148.00" arrivalLane="dst17_0" arrivalPos="8.50" arrivalSpeed="12.86" duration="107.00" routeLength="819.31" waitSteps="38" timeLoss="47.36" rerouteNo="1" devices="tripinfo_19to17.0 routing_19to17.0" vType="DEFAULT_VEHTYPE" speedFactor="1.00" vaporized=""/>
    <tripinfo id="13to16.0" depart="21.00" departLane="e130_0" departPos="5.10" departSpeed="9.00" departDelay="0.00" arrival="151.00" arrivalLane="dst16_0" arrivalPos="11.34" arrivalSpeed="13.26" duration="130.00" routeLength="1653.35" waitSteps="0" timeLoss="10.35" rerouteNo="1" devices="tripinfo_13to16.0 routing_13to16.0" vType="DEFAULT_VEHTYPE" speedFactor="1.00" vaporized=""/>
    <tripinfo id="8to1.0" depart="38.00" departLane="e80_0" departPos="5.10" departSpeed="6.00" departDelay="0.00" arrival="218.00" arrivalLane="dst1_0" arrivalPos="3.70" arrivalSpeed="13.79" duration="180.00" routeLength="2080.54" waitSteps="15" timeLoss="29.95" rerouteNo="1" devices="tripinfo_8to1.0 routing_8to1.0" vType="DEFAULT_VEHTYPE" speedFactor="1.00" vaporized=""/>
    <tripinfo id="8to2.0" depart="58.00" departLane="e80_0" departPos="5.10" departSpeed="6.00" departDelay="0.00" arrival="222.00" arrivalLane="dst2_0" arrivalPos="12.10" arrivalSpeed="13.31" duration="164.00" routeLength="2074.77" waitSteps="0" timeLoss="14.59" rerouteNo="1" devices="tripinfo_8to2.0 routing_8to2.0" vType="DEFAULT_VEHTYPE" speedFactor="1.00" vaporized=""/>
    <tripinfo id="7to10.1" depart="150.00" departLane="e70_0" departPos="5.10" departSpeed="6.00" departDelay="0.00" arrival="253.00" arrivalLane="dst10_0" arrivalPos="17.44" arrivalSpeed="13.04" duration="103.00" routeLength="1241.99" waitSteps="0" timeLoss="13.34" rerouteNo="1" devices="tripinfo_7to10.1 routing_7to10.1" vType="DEFAULT_VEHTYPE" speedFactor="1.00" vaporized=""/>
    <tripinfo id="11to1.0" depart="30.00" departLane="e110_0" departPos="5.10" departSpeed="7.00" departDelay="0.00" arrival="254.00" arrivalLane="dst1_0" arrivalPos="3.70" arrivalSpeed="13.50" duration="224.00" routeLength="2417.16" waitSteps="35" timeLoss="49.88" rerouteNo="1" devices="tripinfo_11to1.0 routing_11to1.0" vType="DEFAULT_VEHTYPE" speedFactor="1.00" vaporized=""/>
    <tripinfo id="11to1.1" depart="86.00" departLane="e110_0" departPos="5.10" departSpeed="7.00" departDelay="0.00" arrival="271.00" arrivalLane="dst1_0" arrivalPos="3.70" arrivalSpeed="12.90" duration="185.00" routeLength="2417.16" waitSteps="0" timeLoss="10.54" rerouteNo="1" devices="tripinfo_11to1.1 routing_11to1.1" vType="DEFAULT_VEHTYPE" speedFactor="1.00" vaporized=""/>
    <tripinfo id="11to1.2" depart="96.00" departLane="e110_0" departPos="5.10" departSpeed="7.00" departDelay="0.00" arrival="280.00" arrivalLane="dst1_0" arrivalPos="3.70" arrivalSpeed="12.70" duration="184.00" routeLength="2417.16" waitSteps="0" timeLoss="10.04" rerouteNo="1" devices="tripinfo_11to1.2 routing_11to1.2" vType="DEFAULT_VEHTYPE" speedFactor="1.00" vaporized=""/>
    <tripinfo id="7to10.2" depart="187.00" departLane="e70_0" departPos="5.10" departSpeed="6.00" departDelay="0.00" arrival="285.00" arrivalLane="dst10_0" arrivalPos="17.44" arrivalSpeed="12.98" duration="98.00" routeLength="1241.99" waitSteps="0" timeLoss="8.64" rerouteNo="1" devices="tripinfo_7to10.2 routing_7to10.2" vType="DEFAULT_VEHTYPE" speedFactor="1.00" vaporized=""/>
    <tripinfo id="19to21.0" depart="0.00" departLane="e190_0" departPos="5.10" departSpeed="7.00" departDelay="0.00" arrival="316.00" arrivalLane="dst21_0" arrivalPos="8.53" arrivalSpeed="13.17" duration="316.00" routeLength="1690.32" waitSteps="180" timeLoss="194.08" rerouteNo="1" devices="tripinfo_19to21.0 routing_19to21.0" vType="DEFAULT_VEHTYPE" speedFactor="1.00" vaporized=""/>
    <tripinfo id="19to21.1" depart="25.00" departLane="e190_0" departPos="5.10" departSpeed="7.00" departDelay="0.00" arrival="318.00" arrivalLane="dst21_0" arrivalPos="8.53" arrivalSpeed="13.28" duration="293.00" routeLength="1690.32" waitSteps="157" timeLoss="171.01" rerouteNo="1" devices="tripinfo_19to21.1 routing_19to21.1" vType="DEFAULT_VEHTYPE" speedFactor="1.00" vaporized=""/>
    <tripinfo id="19to21.2" depart="32.00" departLane="e190_0" departPos="5.10" departSpeed="7.00" departDelay="0.00" arrival="321.00" arrivalLane="dst21_0" arrivalPos="8.53" arrivalSpeed="12.90" duration="289.00" routeLength="1690.32" waitSteps="151" timeLoss="166.48" rerouteNo="1" devices="tripinfo_19to21.2 routing_19to21.2" vType="DEFAULT_VEHTYPE" speedFactor="1.00" vaporized=""/>
    <tripinfo id="19to21.3" depart="63.00" departLane="e190_0" departPos="5.10" departSpeed="7.00" departDelay="0.00" arrival="322.00" arrivalLane="dst21_0" arrivalPos="8.53" arrivalSpeed="13.04" duration="259.00" routeLength="1690.32" waitSteps="121" timeLoss="137.27" rerouteNo="1" devices="tripinfo_19to21.3 routing_19to21.3" vType="DEFAULT_VEHTYPE" speedFactor="1.00" vaporized=""/>
    <tripinfo id="19to21.4" depart="90.00" departLane="e190_0" departPos="5.10" departSpeed="7.00" departDelay="0.00" arrival="324.00" arrivalLane="dst21_0" arrivalPos="8.53" arrivalSpeed="12.93" duration="234.00" routeLength="1690.32" waitSteps="98" timeLoss="112.03" rerouteNo="1" devices="tripinfo_19to21.4 routing_19to21.4" vType="DEFAULT_VEHTYPE" speedFactor="1.00" vaporized=""/>
    <tripinfo id="19to21.5" depart="121.00" departLane="e190_0" departPos="5.10" departSpeed="7.00" departDelay="0.00" arrival="326.00" arrivalLane="dst21_0" arrivalPos="8.53" arrivalSpeed="13.40" duration="205.00" routeLength="1690.32" waitSteps="66" timeLoss="83.00" rerouteNo="1" devices="tripinfo_19to21.5 routing_19to21.5" vType="DEFAULT_VEHTYPE" speedFactor="1.00" vaporized=""/>
    <tripinfo id="16to22.0" depart="74.00" departLane="e160_0" departPos="5.10" departSpeed="6.00" departDelay="0.00" arrival="332.00" arrivalLane="dst22_0" arrivalPos="8.80" arrivalSpeed="13.38" duration="258.00" routeLength="2635.81" waitSteps="47" timeLoss="67.98" rerouteNo="1" devices="tripinfo_16to22.0 routing_16to22.0" vType="DEFAULT_VEHTYPE" speedFactor="1.00" vaporized=""/>
    <tripinfo id="16to21.0" depart="57.00" departLane="e160_0" departPos="5.10" departSpeed="6.00" departDelay="0.00" arrival="334.00" arrivalLane="dst21_0" arrivalPos="8.53" arrivalSpeed="13.46" duration="277.00" routeLength="2781.99" waitSteps="59" timeLoss="76.21" rerouteNo="1" devices="tripinfo_16to21.0 routing_16to21.0" vType="DEFAULT_VEHTYPE" speedFactor="1.00" vaporized=""/>
    <tripinfo id="16to21.1" depart="63.00" departLane="e160_0" departPos="5.10" departSpeed="6.00" departDelay="0.00" arrival="336.00" arrivalLane="dst21_0" arrivalPos="8.53" arrivalSpeed="13.18" duration="273.00" routeLength="2781.99" waitSteps="54" timeLoss="72.78" rerouteNo="1" devices="tripinfo_16to21.1 routing_16to21.1" vType="DEFAULT_VEHTYPE" speedFactor="1.00" vaporized=""/>
    <tripinfo id="20to22.0" depart="106.00" departLane="e200_0" departPos="5.10" departSpeed="6.00" departDelay="0.00" arrival="336.00" arrivalLane="dst22_0" arrivalPos="8.80" arrivalSpeed="13.02" duration="230.00" routeLength="860.38" waitSteps="154" timeLoss="167.37" rerouteNo="1" devices="tripinfo_20to22.0 routing_20to22.0" vType="DEFAULT_VEHTYPE" speedFactor="1.00" vaporized=""/>
    <tripinfo id="20to22.1" depart="142.00" departLane="e200_0" departPos="5.10" departSpeed="6.00" departDelay="0.00" arrival="339.00" arrivalLane="dst22_0" arrivalPos="8.80" arrivalSpeed="13.57" duration="197.00" routeLength="860.38" waitSteps="121" timeLoss="134.20" rerouteNo="1" devices="tripinfo_20to22.1 routing_20to22.1" vType="DEFAULT_VEHTYPE" speedFactor="1.00" vaporized=""/>
    <tripinfo id="1to2.0" depart="17.00" departLane="e10_0" departPos="5.10" departSpeed="10.00" departDelay="1.00" arrival="350.00" arrivalLane="dst2_0" arrivalPos="12.10" arrivalSpeed="12.79" duration="333.00" routeLength="1006.06" waitSteps="251" timeLoss="260.22" rerouteNo="1" devices="tripinfo_1to2.0 routing_1to2.0" vType="DEFAULT_VEHTYPE" speedFactor="1.00" vaporized=""/>
    <tripinfo id="20to22.2" depart="285.00" departLane="e200_0" departPos="5.10" departSpeed="6.00" departDelay="1.00" arrival="352.00" arrivalLane="dst22_0" arrivalPos="8.80" arrivalSpeed="13.37" duration="67.00" routeLength="860.38" waitSteps="0" timeLoss="5.07" rerouteNo="1" devices="tripinfo_20to22.2 routing_20to22.2" vType="DEFAULT_VEHTYPE" speedFactor="1.00" vaporized=""/>
    <tripinfo id="10to8.0" depart="278.00" departLane="e100_0" departPos="5.10" departSpeed="5.00" departDelay="0.00" arrival="371.00" arrivalLane="dst8_0" arrivalPos="14.38" arrivalSpeed="13.08" duration="93.00" routeLength="1007.72" waitSteps="10" timeLoss="19.90" rerouteNo="1" devices="tripinfo_10to8.0 routing_10to8.0" vType="DEFAULT_VEHTYPE" speedFactor="1.00" vaporized=""/>
    <tripinfo id="21to17.0" depart="37.00" departLane="e210_0" departPos="5.10" departSpeed="13.00" departDelay="0.00" arrival="376.00" arrivalLane="dst17_0" arrivalPos="8.50" arrivalSpeed="12.97" duration="339.00" routeLength="1836.68" waitSteps="192" timeLoss="206.80" rerouteNo="1" devices="tripinfo_21to17.0 routing_21to17.0" vType="DEFAULT_VEHTYPE" speedFactor="1.00" vaporized=""/>
    <tripinfo id="21to22.0" depart="52.00" departLane="e210_0" departPos="5.10" departSpeed="13.00" departDelay="0.00" arrival="382.00" arrivalLane="dst22_0" arrivalPos="8.80" arrivalSpeed="12.96" duration="330.00" routeLength="944.64" waitSteps="247" timeLoss="261.49" rerouteNo="1" devices="tripinfo_21to22.0 routing_21to22.0" vType="DEFAULT_VEHTYPE" speedFactor="1.00" vaporized=""/>
    <tripinfo id="10to16.0" depart="145.00" departLane="e100_0" departPos="5.10" departSpeed="5.00" departDelay="0.00" arrival="392.00" arrivalLane="dst16_0" arrivalPos="11.34" arrivalSpeed="13.06" duration="247.00" routeLength="2054.27" waitSteps="78" timeLoss="98.31" rerouteNo="1" devices="tripinfo_10to16.0 routing_10to16.0" vType="DEFAULT_VEHTYPE" speedFactor="1.00" vaporized=""/>
    <tripinfo id="7to16.0" depart="146.00" departLane="e70_0" departPos="5.10" departSpeed="6.00" departDelay="0.00" arrival="395.00" arrivalLane="dst16_0" arrivalPos="11.34" arrivalSpeed="13.08" duration="249.00" routeLength="2352.71" waitSteps="49" timeLoss="78.91" rerouteNo="1" devices="tripinfo_7to16.0 routing_7to16.0" vType="DEFAULT_VEHTYPE" speedFactor="1.00" vaporized=""/>
    <tripinfo id="8to16.0" depart="170.00" departLane="e80_0" departPos="5.10" departSpeed="6.00" departDelay="0.00" arrival="396.00" arrivalLane="dst16_0" arrivalPos="11.34" arrivalSpeed="13.63" duration="226.00" routeLength="2112.53" waitSteps="43" timeLoss="73.89" rerouteNo="1" devices="tripinfo_8to16.0 routing_8to16.0" vType="DEFAULT_VEHTYPE" speedFactor="1.00" vaporized=""/>
    <tripinfo id="1to8.0" depart="15.00" departLane="e10_0" departPos="5.10" departSpeed="10.00" departDelay="0.00" arrival="399.00" arrivalLane="dst8_0" arrivalPos="14.38" arrivalSpeed="12.98" duration="384.00" routeLength="2099.36" waitSteps="213" timeLoss="232.55" rerouteNo="1" devices="tripinfo_1to8.0 routing_1to8.0" vType="DEFAULT_VEHTYPE" speedFactor="1.00" vaporized=""/>
    <tripinfo id="20to14.0" depart="33.00" departLane="e200_0" departPos="5.10" departSpeed="6.00" departDelay="0.00" arrival="399.00" arrivalLane="dst14_0" arrivalPos="1.01" arrivalSpeed="13.12" duration="366.00" routeLength="2770.66" waitSteps="143" timeLoss="165.76" rerouteNo="1" devices="tripinfo_20to14.0 routing_20to14.0" vType="DEFAULT_VEHTYPE" speedFactor="1.00" vaporized=""/>
    <tripinfo id="20to14.1" depart="52.00" departLane="e200_0" departPos="5.10" departSpeed="6.00" departDelay="2.00" arrival="404.00" arrivalLane="dst14_0" arrivalPos="1.01" arrivalSpeed="13.33" duration="352.00" routeLength="2770.66" waitSteps="124" timeLoss="151.93" rerouteNo="1" devices="tripinfo_20to14.1 routing_20to14.1" vType="DEFAULT_VEHTYPE" speedFactor="1.00" vaporized=""/>
    <tripinfo id="13to11.0" depart="66.00" departLane="e130_0" departPos="5.10" departSpeed="9.00" departDelay="0.00" arrival="438.00" arrivalLane="dst11_0" arrivalPos="8.90" arrivalSpeed="13.75" duration="372.00" routeLength="933.59" waitSteps="301" timeLoss="305.61" rerouteNo="1" devices="tripinfo_13to11.0 routing_13to11.0" vType="DEFAULT_VEHTYPE" speedFactor="1.00" vaporized=""/>
    <tripinfo id="7to16.1" depart="267.00" departLane="e70_0" departPos="5.10" departSpeed="6.00" departDelay="0.00" arrival="447.00" arrivalLane="dst16_0" arrivalPos="11.34" arrivalSpeed="13.02" duration="180.00" routeLength="2352.71" waitSteps="0" timeLoss="10.52" rerouteNo="1" devices="tripinfo_7to16.1 routing_7to16.1" vType="DEFAULT_VEHTYPE" speedFactor="1.00" vaporized=""/>
    <tripinfo id="4to2.0" depart="82.00" departLane="e40_0" departPos="5.10" departSpeed="7.00" departDelay="0.00" arrival="456.00" arrivalLane="dst2_0" arrivalPos="12.10" arrivalSpeed="13.37" duration="374.00" routeLength="931.32" waitSteps="301" timeLoss="308.32" rerouteNo="1" devices="tripinfo_4to2.0 routing_4to2.0" vType="DEFAULT_VEHTYPE" speedFactor="1.00" vaporized=""/>
    <tripinfo id="4to1.0" depart="107.00" departLane="e40_0" departPos="5.10" departSpeed="7.00" departDelay="0.00" arrival="480.00" arrivalLane="dst1_0" arrivalPos="3.70" arrivalSpeed="13.67" duration="373.00" routeLength="923.14" waitSteps="301" timeLoss="307.51" rerouteNo="1" devices="tripinfo_4to1.0 routing_4to1.0" vType="DEFAULT_VEHTYPE" speedFactor="1.00" vaporized=""/>
    <tripinfo id="17to19.0" depart="126.00" departLane="e170_0" departPos="5.10" departSpeed="10.00" departDelay="0.00" arrival="484.00" arrivalLane="dst19_0" arrivalPos="8.80" arrivalSpeed="12.62" duration="358.00" routeLength="812.24" waitSteps="290" timeLoss="298.73" rerouteNo="1" devices="tripinfo_17to19.0 routing_17to19.0" vType="DEFAULT_VEHTYPE" speedFactor="1.00" vaporized=""/>
    <tripinfo id="17to19.1" depart="166.00" departLane="e170_0" departPos="5.10" departSpeed="10.00" departDelay="0.00" arrival="485.00" arrivalLane="dst19_0" arrivalPos="8.80" arrivalSpeed="13.32" duration="319.00" routeLength="812.24" waitSteps="246" timeLoss="260.37" rerouteNo="1" devices="tripinfo_17to19.1 routing_17to19.1" vType="DEFAULT_VEHTYPE" speedFactor="1.00" vaporized=""/>
    <tripinfo id="14to16.0" depart="297.00" departLane="e140_0" departPos="5.10" departSpeed="8.00" departDelay="0.00" arrival="485.00" arrivalLane="dst16_0" arrivalPos="11.34" arrivalSpeed="12.79" duration="188.00" routeLength="880.56" waitSteps="116" timeLoss="123.83" rerouteNo="1" devices="tripinfo_14to16.0 routing_14to16.0" vType="DEFAULT_VEHTYPE" speedFactor="1.00" vaporized=""/>
    <tripinfo id="17to19.2" depart="169.00" departLane="e170_0" departPos="5.10" departSpeed="10.00" departDelay="0.00" arrival="487.00" arrivalLane="dst19_0" arrivalPos="8.80" arrivalSpeed="12.99" duration="318.00" routeLength="812.24" waitSteps="242" timeLoss="259.11" rerouteNo="1" devices="tripinfo_17to19.2 routing_17to19.2" vType="DEFAULT_VEHTYPE" speedFactor="1.00" vaporized=""/>
    <tripinfo id="14to16.1" depart="334.00" departLane="e140_0" departPos="5.10" departSpeed="8.00" departDelay="0.00" arrival="488.00" arrivalLane="dst16_0" arrivalPos="11.34" arrivalSpeed="12.65" duration="154.00" routeLength="880.56" waitSteps="79" timeLoss="89.98" rerouteNo="1" devices="tripinfo_14to16.1 routing_14to16.1" vType="DEFAULT_VEHTYPE" speedFactor="1.00" vaporized=""/>
    <tripinfo id="17to19.3" depart="249.00" departLane="e170_0" departPos="5.10" departSpeed="10.00" departDelay="0.00" arrival="489.00" arrivalLane="dst19_0" arrivalPos="8.80" arrivalSpeed="13.06" duration="240.00" routeLength="812.24" waitSteps="167" timeLoss="180.97" rerouteNo="1" devices="tripinfo_17to19.3 routing_17to19.3" vType="DEFAULT_VEHTYPE" speedFactor="1.00" vaporized=""/>
    <tripinfo id="17to19.4" depart="285.00" departLane="e170_0" departPos="5.10" departSpeed="10.00" departDelay="0.00" arrival="491.00" arrivalLane="dst19_0" arrivalPos="8.80" arrivalSpeed="13.36" duration="206.00" routeLength="812.24" waitSteps="132" timeLoss="146.71" rerouteNo="1" devices="tripinfo_17to19.4 routing_17to19.4" vType="DEFAULT_VEHTYPE" speedFactor="1.00" vaporized=""/>
    <tripinfo id="19to17.4" depart="212.00" departLane="e190_0" departPos="5.10" departSpeed="7.00" departDelay="0.00" arrival="494.00" arrivalLane="dst17_0" arrivalPos="8.50" arrivalSpeed="13.86" duration="282.00" routeLength="819.31" waitSteps="205" timeLoss="222.15" rerouteNo="1" devices="tripinfo_19to17.4 routing_19to17.4" vType="DEFAULT_VEHTYPE" speedFactor="1.00" vaporized=""/>
    <tripinfo id="19to17.2" depart="130.00" departLane="e190_0" departPos="5.10" departSpeed="7.00" departDelay="0.00" arrival="495.00" arrivalLane="dst17_0" arrivalPos="8.50" arrivalSpeed="13.69" duration="365.00" routeLength="819.31" waitSteps="295" timeLoss="305.94" rerouteNo="1" devices="tripinfo_19to17.2 routing_19to17.2" vType="DEFAULT_VEHTYPE" speedFactor="1.00" vaporized=""/>
    <tripinfo id="21to19.0" depart="49.00" departLane="e210_0" departPos="5.10" departSpeed="13.00" departDelay="0.00" arrival="495.00" arrivalLane="dst19_0" arrivalPos="8.80" arrivalSpeed="13.46" duration="446.00" routeLength="1709.39" waitSteps="304" timeLoss="322.20" rerouteNo="1" devices="tripinfo_21to19.0 routing_21to19.0" vType="DEFAULT_VEHTYPE" speedFactor="1.00" vaporized=""/>
    <tripinfo id="19to17.3" depart="200.00" departLane="e190_0" departPos="5.10" departSpeed="7.00" departDelay="0.00" arrival="497.00" arrivalLane="dst17_0" arrivalPos="8.50" arrivalSpeed="12.83" duration="297.00" routeLength="819.31" waitSteps="221" timeLoss="237.72" rerouteNo="1" devices="tripinfo_19to17.3 routing_19to17.3" vType="DEFAULT_VEHTYPE" speedFactor="1.00" vaporized=""/>
    <tripinfo id="20to19.0" depart="108.00" departLane="e200_0" departPos="5.10" departSpeed="6.00" departDelay="0.00" arrival="497.00" arrivalLane="dst19_0" arrivalPos="8.80" arrivalSpeed="13.18" duration="389.00" routeLength="1620.96" waitSteps="249" timeLoss="271.76" rerouteNo="1" devices="tripinfo_20to19.0 routing_20to19.0" vType="DEFAULT_VEHTYPE" speedFactor="1.00" vaporized=""/>
    <tripinfo id="19to17.8" depart="312.00" departLane="e190_0" departPos="5.10" departSpeed="7.00" departDelay="0.00" arrival="499.00" arrivalLane="dst17_0" arrivalPos="8.50" arrivalSpeed="13.04" duration="187.00" routeLength="819.31" waitSteps="110" timeLoss="127.67" rerouteNo="1" devices="tripinfo_19to17.8 routing_19to17.8" vType="DEFAULT_VEHTYPE" speedFactor="1.00" vaporized=""/>
    <tripinfo id="19to17.5" depart="259.00" departLane="e190_0" departPos="5.10" departSpeed="7.00" departDelay="0.00" arrival="501.00" arrivalLane="dst17_0" arrivalPos="8.50" arrivalSpeed="13.40" duration="242.00" routeLength="819.31" waitSteps="162" timeLoss="182.26" rerouteNo="1" devices="tripinfo_19to17.5 routing_19to17.5" vType="DEFAULT_VEHTYPE" speedFactor="1.00" vaporized=""/>
    <tripinfo id="19to17.6" depart="293.00" departLane="e190_0" departPos="5.10" departSpeed="7.00" departDelay="0.00" arrival="502.00" arrivalLane="dst17_0" arrivalPos="8.50" arrivalSpeed="13.62" duration="209.00" routeLength="819.31" waitSteps="125" timeLoss="149.98" rerouteNo="1" devices="tripinfo_19to17.6 routing_19to17.6" vType="DEFAULT_VEHTYPE" speedFactor="1.00" vaporized=""/>
    <tripinfo id="19to17.9" depart="349.00" departLane="e190_0" departPos="5.10" departSpeed="7.00" departDelay="0.00" arrival="504.00" arrivalLane="dst17_0" arrivalPos="8.50" arrivalSpeed="13.71" duration="155.00" routeLength="819.31" waitSteps="76" timeLoss="95.75" rerouteNo="1" devices="tripinfo_19to17.9 routing_19to17.9" vType="DEFAULT_VEHTYPE" speedFactor="1.00" vaporized=""/>
    <tripinfo id="19to17.7" depart="300.00" departLane="e190_0" departPos="5.10" departSpeed="7.00" departDelay="0.00" arrival="506.00" arrivalLane="dst17_0" arrivalPos="8.50" arrivalSpeed="13.42" duration="206.00" routeLength="819.31" waitSteps="124" timeLoss="146.45" rerouteNo="1" devices="tripinfo_19to17.7 routing_19to17.7" vType="DEFAULT_VEHTYPE" speedFactor="1.00" vaporized=""/>
    <tripinfo id="16to17.0" depart="258.00" departLane="e160_0" departPos="5.10" departSpeed="6.00" departDelay="0.00" arrival="508.00" arrivalLane="dst17_0" arrivalPos="8.50" arrivalSpeed="13.35" duration="250.00" routeLength="1884.46" waitSteps="94" timeLoss="113.61" rerouteNo="1" devices="tripinfo_16to17.0 routing_16to17.0" vType="DEFAULT_VEHTYPE" speedFactor="1.00" vaporized=""/>
    <tripinfo id="11to13.1" depart="138.00" departLane="e110_0" departPos="5.10" departSpeed="7.00" departDelay="0.00" arrival="512.00" arrivalLane="dst13_0" arrivalPos="8.54" arrivalSpeed="13.08" duration="374.00" routeLength="934.15" waitSteps="301" timeLoss="307.39" rerouteNo="1" devices="tripinfo_11to13.1 routing_11to13.1" vType="DEFAULT_VEHTYPE" speedFactor="1.00" vaporized=""/>
    <tripinfo id="4to1.1" depart="109.00" departLane="e40_0" departPos="5.10" departSpeed="7.00" departDelay="0.00" arrival="529.00" arrivalLane="dst1_0" arrivalPos="3.70" arrivalSpeed="12.83" duration="420.00" routeLength="923.14" waitSteps="340" timeLoss="353.10" rerouteNo="1" devices="tripinfo_4to1.1 routing_4to1.1" vType="DEFAULT_VEHTYPE" speedFactor="1.00" vaporized=""/>
    <tripinfo id="14to16.2" depart="463.00" departLane="e140_0" departPos="5.10" departSpeed="8.00" departDelay="0.00" arrival="530.00" arrivalLane="dst16_0" arrivalPos="11.34" arrivalSpeed="12.82" duration="67.00" routeLength="880.56" waitSteps="0" timeLoss="3.33" rerouteNo="1" devices="tripinfo_14to16.2 routing_14to16.2" vType="DEFAULT_VEHTYPE" speedFactor="1.00" vaporized=""/>
    <tripinfo id="4to2.1" depart="213.00" departLane="e40_0" departPos="5.10" departSpeed="7.00" departDelay="0.00" arrival="530.00" arrivalLane="dst2_0" arrivalPos="12.10" arrivalSpeed="13.42" duration="317.00" routeLength="931.32" waitSteps="236" timeLoss="249.52" rerouteNo="1" devices="tripinfo_4to2.1 routing_4to2.1" vType="DEFAULT_VEHTYPE" speedFactor="1.00" vaporized=""/>
    <tripinfo id="4to2.2" depart="223.00" departLane="e40_0" departPos="5.10" departSpeed="7.00" departDelay="0.00" arrival="532.00" arrivalLane="dst2_0" arrivalPos="12.10" arrivalSpeed="12.69" duration="309.00" routeLength="931.32" waitSteps="227" timeLoss="241.42" rerouteNo="1" devices="tripinfo_4to2.2 routing_4to2.2" vType="DEFAULT_VEHTYPE" speedFactor="1.00" vaporized=""/>
    <tripinfo id="4to2.3" depart="363.00" departLane="e40_0" departPos="5.10" departSpeed="7.00" departDelay="0.00" arrival="534.00" arrivalLane="dst2_0" arrivalPos="12.10" arrivalSpeed="13.16" duration="171.00" routeLength="931.32" waitSteps="88" timeLoss="103.46" rerouteNo="1" devices="tripinfo_4to2.3 routing_4to2.3" vType="DEFAULT_VEHTYPE" speedFactor="1.00" vaporized=""/>
    <tripinfo id="16to21.2" depart="113.00" departLane="e160_0" departPos="5.10" departSpeed="6.00" departDelay="0.00" arrival="550.00" arrivalLane="dst21_0" arrivalPos="8.53" arrivalSpeed="13.43" duration="437.00" routeLength="2781.99" waitSteps="211" timeLoss="236.63" rerouteNo="1" devices="tripinfo_16to21.2 routing_16to21.2" vType="DEFAULT_VEHTYPE" speedFactor="1.00" vaporized=""/>
    <tripinfo id="16to21.3" depart="120.00" departLane="e160_0" departPos="5.10" departSpeed="6.00" departDelay="0.00" arrival="552.00" arrivalLane="dst21_0" arrivalPos="8.53" arrivalSpeed="13.69" duration="432.00" routeLength="2781.99" waitSteps="206" timeLoss="231.41" rerouteNo="1" devices="tripinfo_16to21.3 routing_16to21.3" vType="DEFAULT_VEHTYPE" speedFactor="1.00" vaporized=""/>
    <tripinfo id="16to21.4" depart="132.00" departLane="e160_0" departPos="5.10" departSpeed="6.00" departDelay="0.00" arrival="554.00" arrivalLane="dst21_0" arrivalPos="8.53" arrivalSpeed="12.79" duration="422.00" routeLength="2781.99" waitSteps="201" timeLoss="221.55" rerouteNo="1" devices="tripinfo_16to21.4 routing_16to21.4" vType="DEFAULT_VEHTYPE" speedFactor="1.00" vaporized=""/>
    <tripinfo id="16to21.5" depart="202.00" departLane="e160_0" departPos="5.10" departSpeed="6.00" departDelay="0.00" arrival="556.00" arrivalLane="dst21_0" arrivalPos="8.53" arrivalSpeed="12.88" duration="354.00" routeLength="2781.99" waitSteps="134" timeLoss="153.53" rerouteNo="1" devices="tripinfo_16to21.5 routing_16to21.5" vType="DEFAULT_VEHTYPE" speedFactor="1.00" vaporized=""/>
    <tripinfo id="14to2.0" depart="128.00" departLane="e140_0" departPos="5.10" departSpeed="8.00" departDelay="0.00" arrival="558.00" arrivalLane="dst2_0" arrivalPos="12.10" arrivalSpeed="12.78" duration="430.00" routeLength="3250.35" waitSteps="167" timeLoss="195.73" rerouteNo="1" devices="tripinfo_14to2.0 routing_14to2.0" vType="DEFAULT_VEHTYPE" speedFactor="1.00" vaporized=""/>
    <tripinfo id="16to21.6" depart="241.00" departLane="e160_0" departPos="5.10" departSpeed="6.00" departDelay="0.00" arrival="558.00" arrivalLane="dst21_0" arrivalPos="8.53" arrivalSpeed="13.60" duration="317.00" routeLength="2781.99" waitSteps="97" timeLoss="116.29" rerouteNo="1" devices="tripinfo_16to21.6 routing_16to21.6" vType="DEFAULT_VEHTYPE" speedFactor="1.00" vaporized=""/>
    <tripinfo id="21to20.0" depart="208.00" departLane="e210_0" departPos="5.10" departSpeed="13.00" departDelay="0.00" arrival="558.00" arrivalLane="dst20_0" arrivalPos="8.57" arrivalSpeed="13.77" duration="350.00" routeLength="997.73" waitSteps="246" timeLoss="277.85" rerouteNo="1" devices="tripinfo_21to20.0 routing_21to20.0" vType="DEFAULT_VEHTYPE" speedFactor="1.00" vaporized=""/>
    <tripinfo id="17to21.0" depart="128.00" departLane="e170_0" departPos="5.10" departSpeed="10.00" departDelay="1.00" arrival="560.00" arrivalLane="dst21_0" arrivalPos="8.53" arrivalSpeed="13.58" duration="432.00" routeLength="1839.16" waitSteps="281" timeLoss="298.87" rerouteNo="1" devices="tripinfo_17to21.0 routing_17to21.0" vType="DEFAULT_VEHTYPE" speedFactor="1.00" vaporized=""/>
    <tripinfo id="17to21.1" depart="147.00" departLane="e170_0" departPos="5.10" departSpeed="10.00" departDelay="0.00" arrival="561.00" arrivalLane="dst21_0" arrivalPos="8.53" arrivalSpeed="12.98" duration="414.00" routeLength="1839.16" waitSteps="262" timeLoss="281.67" rerouteNo="1" devices="tripinfo_17to21.1 routing_17to21.1" vType="DEFAULT_VEHTYPE" speedFactor="1.00" vaporized=""/>
    <tripinfo id="14to2.1" depart="151.00" departLane="e140_0" departPos="5.10" departSpeed="8.00" departDelay="0.00" arrival="562.00" arrivalLane="dst2_0" arrivalPos="12.10" arrivalSpeed="13.27" duration="411.00" routeLength="3250.35" waitSteps="144" timeLoss="176.43" rerouteNo="1" devices="tripinfo_14to2.1 routing_14to2.1" vType="DEFAULT_VEHTYPE" speedFactor="1.00" vaporized=""/>
    <tripinfo id="17to21.2" depart="241.00" departLane="e170_0" departPos="5.10" departSpeed="10.00" departDelay="0.00" arrival="563.00" arrivalLane="dst21_0" arrivalPos="8.53" arrivalSpeed="13.62" duration="322.00" routeLength="1839.16" waitSteps="168" timeLoss="189.62" rerouteNo="1" devices="tripinfo_17to21.2 routing_17to21.2" vType="DEFAULT_VEHTYPE" speedFactor="1.00" vaporized=""/>
    <tripinfo id="13to11.1" depart="80.00" departLane="e130_0" departPos="5.10" departSpeed="9.00" departDelay="0.00" arrival="563.00" arrivalLane="dst11_0" arrivalPos="8.90" arrivalSpeed="12.91" duration="483.00" routeLength="933.59" waitSteps="403" timeLoss="415.01" rerouteNo="1" devices="tripinfo_13to11.1 routing_13to11.1" vType="DEFAULT_VEHTYPE" speedFactor="1.00" vaporized=""/>