<?xml version="1.0" encoding="UTF-8"?>

<!-- generated on 04/18/18 19:55:12 by SUMO Version 0.32.0
<?xml version="1.0" encoding="UTF-8"?>

<configuration xmlns:xsi="http://www.w3.org/2001/XMLSchema-instance" xsi:noNamespaceSchemaLocation="http://sumo.dlr.de/xsd/sumoConfiguration.xsd">

    <input>
        <net-file value="tmp/di-tech-5.net.xml"/>
        <route-files value="tmp/di-tech-5.rou.xml"/>
    </input>

    <output>
        <tripinfo-output value="tmp/tripinfo-5.xml"/>
    </output>

    <time>
        <begin value="0.0"/>
    </time>

    <report>
        <no-warnings value="true"/>
        <no-step-log value="true"/>
    </report>

    <traci_server>
        <remote-port value="8829"/>
    </traci_server>

</configuration>
-->

<tripinfos xmlns:xsi="http://www.w3.org/2001/XMLSchema-instance" xsi:noNamespaceSchemaLocation="http://sumo.dlr.de/xsd/tripinfo_file.xsd">
    <tripinfo id="7to10.0" depart="37.00" departLane="e70_0" departPos="5.10" departSpeed="6.00" departDelay="0.00" arrival="134.00" arrivalLane="dst10_0" arrivalPos="17.44" arrivalSpeed="13.07" duration="97.00" routeLength="1241.99" waitSteps="0" timeLoss="7.42" rerouteNo="1" devices="tripinfo_7to10.0 routing_7to10.0" vType="DEFAULT_VEHTYPE" speedFactor="1.00" vaporized=""/>
    <tripinfo id="13to16.0" depart="21.00" departLane="e130_0" departPos="5.10" departSpeed="9.00" departDelay="0.00" arrival="151.00" arrivalLane="dst16_0" arrivalPos="11.34" arrivalSpeed="12.65" duration="130.00" routeLength="1653.35" waitSteps="0" timeLoss="10.94" rerouteNo="1" devices="tripinfo_13to16.0 routing_13to16.0" vType="DEFAULT_VEHTYPE" speedFactor="1.00" vaporized=""/>
    <tripinfo id="1to7.0" depart="8.00" departLane="e10_0" departPos="5.10" departSpeed="10.00" departDelay="0.00" arrival="170.00" arrivalLane="dst7_0" arrivalPos="8.50" arrivalSpeed="13.50" duration="162.00" routeLength="1511.56" waitSteps="41" timeLoss="53.05" rerouteNo="1" devices="tripinfo_1to7.0 routing_1to7.0" vType="DEFAULT_VEHTYPE" speedFactor="1.00" vaporized=""/>
    <tripinfo id="8to1.0" depart="38.00" departLane="e80_0" departPos="5.10" departSpeed="6.00" departDelay="0.00" arrival="198.00" arrivalLane="dst1_0" arrivalPos="3.70" arrivalSpeed="13.61" duration="160.00" routeLength="2080.54" waitSteps="0" timeLoss="10.22" rerouteNo="1" devices="tripinfo_8to1.0 routing_8to1.0" vType="DEFAULT_VEHTYPE" speedFactor="1.00" vaporized=""/>
    <tripinfo id="13to11.0" depart="66.00" departLane="e130_0" departPos="5.10" departSpeed="9.00" departDelay="0.00" arrival="202.00" arrivalLane="dst11_0" arrivalPos="8.90" arrivalSpeed="13.49" duration="136.00" routeLength="933.59" waitSteps="60" timeLoss="68.60" rerouteNo="1" devices="tripinfo_13to11.0 routing_13to11.0" vType="DEFAULT_VEHTYPE" speedFactor="1.00" vaporized=""/>
    <tripinfo id="13to11.1" depart="80.00" departLane="e130_0" departPos="5.10" departSpeed="9.00" departDelay="0.00" arrival="204.00" arrivalLane="dst11_0" arrivalPos="8.90" arrivalSpeed="12.68" duration="124.00" routeLength="933.59" waitSteps="46" timeLoss="56.62" rerouteNo="1" devices="tripinfo_13to11.1 routing_13to11.1" vType="DEFAULT_VEHTYPE" speedFactor="1.00" vaporized=""/>
    <tripinfo id="13to11.2" depart="124.00" departLane="e130_0" departPos="5.10" departSpeed="9.00" departDelay="0.00" arrival="208.00" arrivalLane="dst11_0" arrivalPos="8.90" arrivalSpeed="13.72" duration="84.00" routeLength="933.59" waitSteps="6" timeLoss="16.26" rerouteNo="1" devices="tripinfo_13to11.2 routing_13to11.2" vType="DEFAULT_VEHTYPE" speedFactor="1.00" vaporized=""/>
    <tripinfo id="8to2.0" depart="58.00" departLane="e80_0" departPos="5.10" departSpeed="6.00" departDelay="0.00" arrival="218.00" arrivalLane="dst2_0" arrivalPos="12.10" arrivalSpeed="13.74" duration="160.00" routeLength="2074.77" waitSteps="0" timeLoss="10.60" rerouteNo="1" devices="tripinfo_8to2.0 routing_8to2.0" vType="DEFAULT_VEHTYPE" speedFactor="1.00" vaporized=""/>
    <tripinfo id="14to16.0" depart="155.00" departLane="e140_0" departPos="5.10" departSpeed="8.00" departDelay="0.00" arrival="222.00" arrivalLane="dst16_0" arrivalPos="11.34" arrivalSpeed="13.64" duration="67.00" routeLength="880.56" waitSteps="0" timeLoss="3.45" rerouteNo="1" devices="tripinfo_14to16.0 routing_14to16.0" vType="DEFAULT_VEHTYPE" speedFactor="1.00" vaporized=""/>
    <tripinfo id="13to11.3" depart="166.00" departLane="e130_0" departPos="5.10" departSpeed="9.00" departDelay="0.00" arrival="237.00" arrivalLane="dst11_0" arrivalPos="8.90" arrivalSpeed="12.73" duration="71.00" routeLength="933.59" waitSteps="0" timeLoss="3.36" rerouteNo="1" devices="tripinfo_13to11.3 routing_13to11.3" vType="DEFAULT_VEHTYPE" speedFactor="1.00" vaporized=""/>
    <tripinfo id="5to1.0" depart="130.00" departLane="e50_0" departPos="5.10" departSpeed="8.00" departDelay="0.00" arrival="256.00" arrivalLane="dst1_0" arrivalPos="3.70" arrivalSpeed="13.10" duration="126.00" routeLength="1632.60" waitSteps="0" timeLoss="8.11" rerouteNo="1" devices="tripinfo_5to1.0 routing_5to1.0" vType="DEFAULT_VEHTYPE" speedFactor="1.00" vaporized=""/>
    <tripinfo id="11to1.0" depart="30.00" departLane="e110_0" departPos="5.10" departSpeed="7.00" departDelay="0.00" arrival="272.00" arrivalLane="dst1_0" arrivalPos="3.70" arrivalSpeed="13.15" duration="242.00" routeLength="2417.16" waitSteps="53" timeLoss="67.56" rerouteNo="1" devices="tripinfo_11to1.0 routing_11to1.0" vType="DEFAULT_VEHTYPE" speedFactor="1.00" vaporized=""/>
    <tripinfo id="13to16.1" depart="168.00" departLane="e130_0" departPos="5.10" departSpeed="9.00" departDelay="2.00" arrival="303.00" arrivalLane="dst16_0" arrivalPos="11.34" arrivalSpeed="13.78" duration="135.00" routeLength="1653.35" waitSteps="2" timeLoss="15.99" rerouteNo="1" devices="tripinfo_13to16.1 routing_13to16.1" vType="DEFAULT_VEHTYPE" speedFactor="1.00" vaporized=""/>
    <tripinfo id="20to14.0" depart="33.00" departLane="e200_0" departPos="5.10" departSpeed="6.00" departDelay="0.00" arrival="309.00" arrivalLane="dst14_0" arrivalPos="1.01" arrivalSpeed="13.15" duration="276.00" routeLength="2770.66" waitSteps="51" timeLoss="75.98" rerouteNo="1" devices="tripinfo_20to14.0 routing_20to14.0" vType="DEFAULT_VEHTYPE" speedFactor="1.00" vaporized=""/>
    <tripinfo id="5to1.1" depart="185.00" departLane="e50_0" departPos="5.10" departSpeed="8.00" departDelay="0.00" arrival="311.00" arrivalLane="dst1_0" arrivalPos="3.70" arrivalSpeed="13.27" duration="126.00" routeLength="1632.60" waitSteps="0" timeLoss="8.22" rerouteNo="1" devices="tripinfo_5to1.1 routing_5to1.1" vType="DEFAULT_VEHTYPE" speedFactor="1.00" vaporized=""/>
    <tripinfo id="11to13.0" depart="48.00" departLane="e110_0" departPos="5.10" departSpeed="7.00" departDelay="0.00" arrival="311.00" arrivalLane="dst13_0" arrivalPos="8.54" arrivalSpeed="13.23" duration="263.00" routeLength="934.15" waitSteps="186" timeLoss="195.42" rerouteNo="1" devices="tripinfo_11to13.0 routing_11to13.0" vType="DEFAULT_VEHTYPE" speedFactor="1.00" vaporized=""/>
    <tripinfo id="20to14.1" depart="52.00" departLane="e200_0" departPos="5.10" departSpeed="6.00" departDelay="2.00" arrival="312.00" arrivalLane="dst14_0" arrivalPos="1.01" arrivalSpeed="13.70" duration="260.00" routeLength="2770.66" waitSteps="32" timeLoss="60.16" rerouteNo="1" devices="tripinfo_20to14.1 routing_20to14.1" vType="DEFAULT_VEHTYPE" speedFactor="1.00" vaporized=""/>
    <tripinfo id="7to10.1" depart="219.00" departLane="e70_0" departPos="5.10" departSpeed="6.00" departDelay="0.00" arrival="317.00" arrivalLane="dst10_0" arrivalPos="17.44" arrivalSpeed="13.23" duration="98.00" routeLength="1241.99" waitSteps="0" timeLoss="7.83" rerouteNo="1" devices="tripinfo_7to10.1 routing_7to10.1" vType="DEFAULT_VEHTYPE" speedFactor="1.00" vaporized=""/>
    <tripinfo id="5to1.2" depart="192.00" departLane="e50_0" departPos="5.10" departSpeed="8.00" departDelay="0.00" arrival="318.00" arrivalLane="dst1_0" arrivalPos="3.70" arrivalSpeed="13.70" duration="126.00" routeLength="1632.60" waitSteps="0" timeLoss="8.06" rerouteNo="1" devices="tripinfo_5to1.2 routing_5to1.2" vType="DEFAULT_VEHTYPE" speedFactor="1.00" vaporized=""/>
    <tripinfo id="11to13.1" depart="128.00" departLane="e110_0" departPos="5.10" departSpeed="7.00" departDelay="2.00" arrival="319.00" arrivalLane="dst13_0" arrivalPos="8.54" arrivalSpeed="12.87" duration="191.00" routeLength="934.15" waitSteps="111" timeLoss="123.02" rerouteNo="1" devices="tripinfo_11to13.1 routing_11to13.1" vType="DEFAULT_VEHTYPE" speedFactor="1.00" vaporized=""/>
    <tripinfo id="11to13.2" depart="164.00" departLane="e110_0" departPos="5.10" departSpeed="7.00" departDelay="0.00" arrival="324.00" arrivalLane="dst13_0" arrivalPos="8.54" arrivalSpeed="13.60" duration="160.00" routeLength="934.15" waitSteps="78" timeLoss="92.01" rerouteNo="1" devices="tripinfo_11to13.2 routing_11to13.2" vType="DEFAULT_VEHTYPE" speedFactor="1.00" vaporized=""/>
    <tripinfo id="11to13.3" depart="218.00" departLane="e110_0" departPos="5.10" departSpeed="7.00" departDelay="0.00" arrival="331.00" arrivalLane="dst13_0" arrivalPos="8.54" arrivalSpeed="12.94" duration="113.00" routeLength="934.15" waitSteps="30" timeLoss="45.51" rerouteNo="1" devices="tripinfo_11to13.3 routing_11to13.3" vType="DEFAULT_VEHTYPE" speedFactor="1.00" vaporized=""/>
    <tripinfo id="1to2.0" depart="17.00" departLane="e10_0" departPos="5.10" departSpeed="10.00" departDelay="1.00" arrival="334.00" arrivalLane="dst2_0" arrivalPos="12.10" arrivalSpeed="13.70" duration="317.00" routeLength="1006.06" waitSteps="230" timeLoss="243.75" rerouteNo="1" devices="tripinfo_1to2.0 routing_1to2.0" vType="DEFAULT_VEHTYPE" speedFactor="1.00" vaporized=""/>
    <tripinfo id="7to10.2" depart="250.00" departLane="e70_0" departPos="5.10" departSpeed="6.00" departDelay="0.00" arrival="348.00" arrivalLane="dst10_0" arrivalPos="17.44" arrivalSpeed="13.88" duration="98.00" routeLength="1241.99" waitSteps="0" timeLoss="8.10" rerouteNo="1" devices="tripinfo_7to10.2 routing_7to10.2" vType="DEFAULT_VEHTYPE" speedFactor="1.00" vaporized=""/>
    <tripinfo id="1to8.0" depart="15.00" departLane="e10_0" departPos="5.10" departSpeed="10.00" departDelay="0.00" arrival="368.00" arrivalLane="dst8_0" arrivalPos="14.38" arrivalSpeed="13.70" duration="353.00" routeLength="2099.36" waitSteps="178" timeLoss="201.82" rerouteNo="1" devices="tripinfo_1to8.0 routing_1to8.0" vType="DEFAULT_VEHTYPE" speedFactor="1.00" vaporized=""/>
    <tripinfo id="19to21.0" depart="0.00" departLane="e190_0" departPos="5.10" departSpeed="7.00" departDelay="0.00" arrival="377.00" arrivalLane="dst21_0" arrivalPos="8.53" arrivalSpeed="12.68" duration="377.00" routeLength="1690.32" waitSteps="240" timeLoss="255.05" rerouteNo="1" devices="tripinfo_19to21.0 routing_19to21.0" vType="DEFAULT_VEHTYPE" speedFactor="1.00" vaporized=""/>
    <tripinfo id="16to22.0" depart="74.00" departLane="e160_0" departPos="5.10" departSpeed="6.00" departDelay="0.00" arrival="377.00" arrivalLane="dst22_0" arrivalPos="8.80" arrivalSpeed="13.39" duration="303.00" routeLength="2635.81" waitSteps="92" timeLoss="112.46" rerouteNo="1" devices="tripinfo_16to22.0 routing_16to22.0" vType="DEFAULT_VEHTYPE" speedFactor="1.00" vaporized=""/>
    <tripinfo id="19to21.1" depart="25.00" departLane="e190_0" departPos="5.10" departSpeed="7.00" departDelay="0.00" arrival="379.00" arrivalLane="dst21_0" arrivalPos="8.53" arrivalSpeed="13.32" duration="354.00" routeLength="1690.32" waitSteps="217" timeLoss="232.13" rerouteNo="1" devices="tripinfo_19to21.1 routing_19to21.1" vType="DEFAULT_VEHTYPE" speedFactor="1.00" vaporized=""/>
    <tripinfo id="13to11.4" depart="308.00" departLane="e130_0" departPos="5.10" departSpeed="9.00" departDelay="0.00" arrival="379.00" arrivalLane="dst11_0" arrivalPos="8.90" arrivalSpeed="13.50" duration="71.00" routeLength="933.59" waitSteps="0" timeLoss="3.46" rerouteNo="1" devices="tripinfo_13to11.4 routing_13to11.4" vType="DEFAULT_VEHTYPE" speedFactor="1.00" vaporized=""/>
    <tripinfo id="19to21.2" depart="32.00" departLane="e190_0" departPos="5.10" departSpeed="7.00" departDelay="0.00" arrival="381.00" arrivalLane="dst21_0" arrivalPos="8.53" arrivalSpeed="13.84" duration="349.00" routeLength="1690.32" waitSteps="212" timeLoss="227.09" rerouteNo="1" devices="tripinfo_19to21.2 routing_19to21.2" vType="DEFAULT_VEHTYPE" speedFactor="1.00" vaporized=""/>
    <tripinfo id="16to22.1" depart="151.00" departLane="e160_0" departPos="5.10" departSpeed="6.00" departDelay="0.00" arrival="382.00" arrivalLane="dst22_0" arrivalPos="8.80" arrivalSpeed="13.46" duration="231.00" routeLength="2635.81" waitSteps="20" timeLoss="41.00" rerouteNo="1" devices="tripinfo_16to22.1 routing_16to22.1" vType="DEFAULT_VEHTYPE" speedFactor="1.00" vaporized=""/>
    <tripinfo id="16to21.0" depart="57.00" departLane="e160_0" departPos="5.10" departSpeed="6.00" departDelay="0.00" arrival="383.00" arrivalLane="dst21_0" arrivalPos="8.53" arrivalSpeed="13.13" duration="326.00" routeLength="2781.99" waitSteps="102" timeLoss="125.47" rerouteNo="1" devices="tripinfo_16to21.0 routing_16to21.0" vType="DEFAULT_VEHTYPE" speedFactor="1.00" vaporized=""/>
    <tripinfo id="16to21.1" depart="63.00" departLane="e160_0" departPos="5.10" departSpeed="6.00" departDelay="0.00" arrival="385.00" arrivalLane="dst21_0" arrivalPos="8.53" arrivalSpeed="13.57" duration="322.00" routeLength="2781.99" waitSteps="100" timeLoss="121.28" rerouteNo="1" devices="tripinfo_16to21.1 routing_16to21.1" vType="DEFAULT_VEHTYPE" speedFactor="1.00" vaporized=""/>
    <tripinfo id="13to16.2" depart="256.00" departLane="e130_0" departPos="5.10" departSpeed="9.00" departDelay="0.00" arrival="385.00" arrivalLane="dst16_0" arrivalPos="11.34" arrivalSpeed="13.50" duration="129.00" routeLength="1653.35" waitSteps="0" timeLoss="9.27" rerouteNo="1" devices="tripinfo_13to16.2 routing_13to16.2" vType="DEFAULT_VEHTYPE" speedFactor="1.00" vaporized=""/>
    <tripinfo id="16to21.2" depart="113.00" departLane="e160_0" departPos="5.10" departSpeed="6.00" departDelay="0.00" arrival="389.00" arrivalLane="dst21_0" arrivalPos="8.53" arrivalSpeed="13.59" duration="276.00" routeLength="2781.99" waitSteps="54" timeLoss="75.65" rerouteNo="1" devices="tripinfo_16to21.2 routing_16to21.2" vType="DEFAULT_VEHTYPE" speedFactor="1.00" vaporized=""/>
    <tripinfo id="16to21.3" depart="132.00" departLane="e160_0" departPos="5.10" departSpeed="6.00" departDelay="0.00" arrival="391.00" arrivalLane="dst21_0" arrivalPos="8.53" arrivalSpeed="13.38" duration="259.00" routeLength="2781.99" waitSteps="38" timeLoss="58.51" rerouteNo="1" devices="tripinfo_16to21.3 routing_16to21.3" vType="DEFAULT_VEHTYPE" speedFactor="1.00" vaporized=""/>
    <tripinfo id="19to17.0" depart="41.00" departLane="e190_0" departPos="5.10" departSpeed="7.00" departDelay="0.00" arrival="405.00" arrivalLane="dst17_0" arrivalPos="8.50" arrivalSpeed="12.91" duration="364.00" routeLength="819.31" waitSteps="301" timeLoss="306.34" rerouteNo="1" devices="tripinfo_19to17.0 routing_19to17.0" vType="DEFAULT_VEHTYPE" speedFactor="1.00" vaporized=""/>
    <tripinfo id="19to17.1" depart="48.00" departLane="e190_0" departPos="5.10" departSpeed="7.00" departDelay="0.00" arrival="415.00" arrivalLane="dst17_0" arrivalPos="8.50" arrivalSpeed="12.61" duration="367.00" routeLength="819.31" waitSteps="301" timeLoss="310.13" rerouteNo="1" devices="tripinfo_19to17.1 routing_19to17.1" vType="DEFAULT_VEHTYPE" speedFactor="1.00" vaporized=""/>
    <tripinfo id="16to21.4" depart="208.00" departLane="e160_0" departPos="5.10" departSpeed="6.00" departDelay="0.00" arrival="420.00" arrivalLane="dst21_0" arrivalPos="8.53" arrivalSpeed="12.66" duration="212.00" routeLength="2781.99" waitSteps="0" timeLoss="11.67" rerouteNo="1" devices="tripinfo_16to21.4 routing_16to21.4" vType="DEFAULT_VEHTYPE" speedFactor="1.00" vaporized=""/>
    <tripinfo id="16to21.5" depart="210.00" departLane="e160_0" departPos="5.10" departSpeed="6.00" departDelay="0.00" arrival="425.00" arrivalLane="dst21_0" arrivalPos="8.53" arrivalSpeed="13.17" duration="215.00" routeLength="2781.99" waitSteps="0" timeLoss="14.20" rerouteNo="1" devices="tripinfo_16to21.5 routing_16to21.5" vType="DEFAULT_VEHTYPE" speedFactor="1.00" vaporized=""/>
    <tripinfo id="16to21.6" depart="212.00" departLane="e160_0" departPos="5.10" departSpeed="6.00" departDelay="0.00" arrival="427.00" arrivalLane="dst21_0" arrivalPos="8.53" arrivalSpeed="12.84" duration="215.00" routeLength="2781.99" waitSteps="0" timeLoss="14.27" rerouteNo="1" devices="tripinfo_16to21.6 routing_16to21.6" vType="DEFAULT_VEHTYPE" speedFactor="1.00" vaporized=""/>
    <tripinfo id="16to21.7" depart="223.00" departLane="e160_0" departPos="5.10" departSpeed="6.00" departDelay="0.00" arrival="436.00" arrivalLane="dst21_0" arrivalPos="8.53" arrivalSpeed="13.22" duration="213.00" routeLength="2781.99" waitSteps="0" timeLoss="12.56" rerouteNo="1" devices="tripinfo_16to21.7 routing_16to21.7" vType="DEFAULT_VEHTYPE" speedFactor="1.00" vaporized=""/>
    <tripinfo id="13to21.0" depart="114.00" departLane="e130_0" departPos="5.10" departSpeed="9.00" departDelay="0.00" arrival="452.00" arrivalLane="dst21_0" arrivalPos="8.53" arrivalSpeed="13.15" duration="338.00" routeLength="3679.25" waitSteps="48" timeLoss="72.51" rerouteNo="1" devices="tripinfo_13to21.0 routing_13to21.0" vType="DEFAULT_VEHTYPE" speedFactor="1.00" vaporized=""/>
    <tripinfo id="13to21.1" depart="147.00" departLane="e130_0" departPos="5.10" departSpeed="9.00" departDelay="0.00" arrival="454.00" arrivalLane="dst21_0" arrivalPos="8.53" arrivalSpeed="12.73" duration="307.00" routeLength="3679.25" waitSteps="22" timeLoss="42.27" rerouteNo="1" devices="tripinfo_13to21.1 routing_13to21.1" vType="DEFAULT_VEHTYPE" speedFactor="1.00" vaporized=""/>
    <tripinfo id="20to22.0" depart="106.00" departLane="e200_0" departPos="5.10" departSpeed="6.00" departDelay="0.00" arrival="454.00" arrivalLane="dst22_0" arrivalPos="8.80" arrivalSpeed="13.16" duration="348.00" routeLength="860.38" waitSteps="275" timeLoss="285.74" rerouteNo="1" devices="tripinfo_20to22.0 routing_20to22.0" vType="DEFAULT_VEHTYPE" speedFactor="1.00" vaporized=""/>
    <tripinfo id="4to2.0" depart="82.00" departLane="e40_0" departPos="5.10" departSpeed="7.00" departDelay="0.00" arrival="456.00" arrivalLane="dst2_0" arrivalPos="12.10" arrivalSpeed="13.68" duration="374.00" routeLength="931.32" waitSteps="301" timeLoss="308.59" rerouteNo="1" devices="tripinfo_4to2.0 routing_4to2.0" vType="DEFAULT_VEHTYPE" speedFactor="1.00" vaporized=""/>
    <tripinfo id="20to22.1" depart="183.00" departLane="e200_0" departPos="5.10" departSpeed="6.00" departDelay="0.00" arrival="460.00" arrivalLane="dst22_0" arrivalPos="8.80" arrivalSpeed="12.83" duration="277.00" routeLength="860.38" waitSteps="204" timeLoss="214.74" rerouteNo="1" devices="tripinfo_20to22.1 routing_20to22.1" vType="DEFAULT_VEHTYPE" speedFactor="1.00" vaporized=""/>
    <tripinfo id="14to11.0" depart="129.00" departLane="e140_0" departPos="5.10" departSpeed="8.00" departDelay="1.00" arrival="461.00" arrivalLane="dst11_0" arrivalPos="8.90" arrivalSpeed="12.97" duration="332.00" routeLength="1756.78" waitSteps="189" timeLoss="205.29" rerouteNo="1" devices="tripinfo_14to11.0 routing_14to11.0" vType="DEFAULT_VEHTYPE" speedFactor="1.00" vaporized=""/>
    <tripinfo id="20to22.2" depart="221.00" departLane="e200_0" departPos="5.10" departSpeed="6.00" departDelay="0.00" arrival="462.00" arrivalLane="dst22_0" arrivalPos="8.80" arrivalSpeed="13.35" duration="241.00" routeLength="860.38" waitSteps="166" timeLoss="178.60" rerouteNo="1" devices="tripinfo_20to22.2 routing_20to22.2" vType="DEFAULT_VEHTYPE" speedFactor="1.00" vaporized=""/>
    <tripinfo id="20to22.3" depart="246.00" departLane="e200_0" departPos="5.10" departSpeed="6.00" departDelay="0.00" arrival="464.00" arrivalLane="dst22_0" arrivalPos="8.80" arrivalSpeed="12.64" duration="218.00" routeLength="860.38" waitSteps="144" timeLoss="155.64" rerouteNo="1" devices="tripinfo_20to22.3 routing_20to22.3" vType="DEFAULT_VEHTYPE" speedFactor="1.00" vaporized=""/>
    <tripinfo id="20to11.0" depart="50.00" departLane="e200_0" departPos="5.10" departSpeed="6.00" departDelay="0.00" arrival="465.00" arrivalLane="dst11_0" arrivalPos="8.90" arrivalSpeed="13.36" duration="415.00" routeLength="3583.50" waitSteps="122" timeLoss="156.43" rerouteNo="1" devices="tripinfo_20to11.0 routing_20to11.0" vType="DEFAULT_VEHTYPE" speedFactor="1.00" vaporized=""/>
    <tripinfo id="20to22.4" depart="264.00" departLane="e200_0" departPos="5.10" departSpeed="6.00" departDelay="0.00" arrival="466.00" arrivalLane="dst22_0" arrivalPos="8.80" arrivalSpeed="12.96" duration="202.00" routeLength="860.38" waitSteps="127" timeLoss="139.37" rerouteNo="1" devices="tripinfo_20to22.4 routing_20to22.4" vType="DEFAULT_VEHTYPE" speedFactor="1.00" vaporized=""/>
    <tripinfo id="20to22.5" depart="335.00" departLane="e200_0" departPos="5.10" departSpeed="6.00" departDelay="0.00" arrival="470.00" arrivalLane="dst22_0" arrivalPos="8.80" arrivalSpeed="13.72" duration="135.00" routeLength="860.38" waitSteps="60" timeLoss="72.98" rerouteNo="1" devices="tripinfo_20to22.5 routing_20to22.5" vType="DEFAULT_VEHTYPE" speedFactor="1.00" vaporized=""/>
    <tripinfo id="4to2.1" depart="261.00" departLane="e40_0" departPos="5.10" departSpeed="7.00" departDelay="0.00" arrival="475.00" arrivalLane="dst2_0" arrivalPos="12.10" arrivalSpeed="13.86" duration="214.00" routeLength="931.32" waitSteps="133" timeLoss="146.67" rerouteNo="1" devices="tripinfo_4to2.1 routing_4to2.1" vType="DEFAULT_VEHTYPE" speedFactor="1.00" vaporized=""/>
    <tripinfo id="4to1.0" depart="107.00" departLane="e40_0" departPos="5.10" departSpeed="7.00" departDelay="0.00" arrival="475.00" arrivalLane="dst1_0" arrivalPos="3.70" arrivalSpeed="13.63" duration="368.00" routeLength="923.14" waitSteps="291" timeLoss="300.68" rerouteNo="1" devices="tripinfo_4to1.0 routing_4to1.0" vType="DEFAULT_VEHTYPE" speedFactor="1.00" vaporized=""/>
    <tripinfo id="4to1.1" depart="109.00" departLane="e40_0" departPos="5.10" departSpeed="7.00" departDelay="0.00" arrival="476.00" arrivalLane="dst1_0" arrivalPos="3.70" arrivalSpeed="13.52" duration="367.00" routeLength="923.14" waitSteps="290" timeLoss="300.47" rerouteNo="1" devices="tripinfo_4to1.1 routing_4to1.1" vType="DEFAULT_VEHTYPE" speedFactor="1.00" vaporized=""/>
    <tripinfo id="14to16.1" depart="411.00" departLane="e140_0" departPos="5.10" departSpeed="8.00" departDelay="0.00" arrival="478.00" arrivalLane="dst16_0" arrivalPos="11.34" arrivalSpeed="13.82" duration="67.00" routeLength="880.56" waitSteps="0" timeLoss="3.12" rerouteNo="1" devices="tripinfo_14to16.1 routing_14to16.1" vType="DEFAULT_VEHTYPE" speedFactor="1.00" vaporized=""/>
    <tripinfo id="4to1.2" depart="238.00" departLane="e40_0" departPos="5.10" departSpeed="7.00" departDelay="0.00" arrival="479.00" arrivalLane="dst1_0" arrivalPos="3.70" arrivalSpeed="12.83" duration="241.00" routeLength="923.14" waitSteps="163" timeLoss="173.93" rerouteNo="1" devices="tripinfo_4to1.2 routing_4to1.2" vType="DEFAULT_VEHTYPE" speedFactor="1.00" vaporized=""/>
    <tripinfo id="22to20.0" depart="180.00" departLane="e220_0" departPos="5.10" departSpeed="5.00" departDelay="0.00" arrival="485.00" arrivalLane="dst20_0" arrivalPos="8.57" arrivalSpeed="13.84" duration="305.00" routeLength="860.48" waitSteps="229" timeLoss="242.24" rerouteNo="1" devices="tripinfo_22to20.0 routing_22to20.0" vType="DEFAULT_VEHTYPE" speedFactor="1.00" vaporized=""/>
    <tripinfo id="22to20.1" depart="289.00" departLane="e220_0" departPos="5.10" departSpeed="5.00" departDelay="0.00" arrival="487.00" arrivalLane="dst20_0" arrivalPos="8.57" arrivalSpeed="12.62" duration="198.00" routeLength="860.48" waitSteps="120" timeLoss="135.32" rerouteNo="1" devices="tripinfo_22to20.1 routing_22to20.1" vType="DEFAULT_VEHTYPE" speedFactor="1.00" vaporized=""/>
    <tripinfo id="17to19.0" depart="150.00" departLane="e170_0" departPos="5.10" departSpeed="10.00" departDelay="0.00" arrival="489.00" arrivalLane="dst19_0" arrivalPos="8.80" arrivalSpeed="13.67" duration="339.00" routeLength="812.24" waitSteps="272" timeLoss="280.54" rerouteNo="1" devices="tripinfo_17to19.0 routing_17to19.0" vType="DEFAULT_VEHTYPE" speedFactor="1.00" vaporized=""/>
    <tripinfo id="4to2.2" depart="396.00" departLane="e40_0" departPos="5.10" departSpeed="7.00" departDelay="0.00" arrival="489.00" arrivalLane="dst2_0" arrivalPos="12.10" arrivalSpeed="13.80" duration="93.00" routeLength="931.32" waitSteps="6" timeLoss="25.26" rerouteNo="1" devices="tripinfo_4to2.2 routing_4to2.2" vType="DEFAULT_VEHTYPE" speedFactor="1.00" vaporized=""/>
    <tripinfo id="22to20.2" depart="294.00" departLane="e220_0" departPos="5.10" departSpeed="5.00" departDelay="0.00" arrival="489.00" arrivalLane="dst20_0" arrivalPos="8.57" arrivalSpeed="13.50" duration="195.00" routeLength="860.48" waitSteps="116" timeLoss="132.14" rerouteNo="1" devices="tripinfo_22to20.2 routing_22to20.2" vType="DEFAULT_VEHTYPE" speedFactor="1.00" vaporized=""/>
    <tripinfo id="22to20.3" depart="403.00" departLane="e220_0" departPos="5.10" departSpeed="5.00" departDelay="0.00" arrival="490.00" arrivalLane="dst20_0" arrivalPos="8.57" arrivalSpeed="13.08" duration="87.00" routeLength="860.48" waitSteps="14" timeLoss="24.91" rerouteNo="1" devices="tripinfo_22to20.3 routing_22to20.3" vType="DEFAULT_VEHTYPE" speedFactor="1.00" vaporized=""/>
    <tripinfo id="17to19.1" depart="167.00" departLane="e170_0" departPos="5.10" departSpeed="10.00" departDelay="0.00" arrival="491.00" arrivalLane="dst19_0" arrivalPos="8.80" arrivalSpeed="13.56" duration="324.00" routeLength="812.24" waitSteps="251" timeLoss="265.31" rerouteNo="1" devices="tripinfo_17to19.1 routing_17to19.1" vType="DEFAULT_VEHTYPE" speedFactor="1.00" vaporized=""/>
    <tripinfo id="11to5.0" depart="296.00" departLane="e110_0" departPos="5.10" departSpeed="7.00" departDelay="0.00" arrival="492.00" arrivalLane="dst5_0" arrivalPos="0.94" arrivalSpeed="13.16" duration="196.00" routeLength="1743.78" waitSteps="54" timeLoss="70.53" rerouteNo="1" devices="tripinfo_11to5.0 routing_11to5.0" vType="DEFAULT_VEHTYPE" speedFactor="1.00" vaporized=""/>
    <tripinfo id="7to10.3" depart="394.00" departLane="e70_0" departPos="5.10" departSpeed="6.00" departDelay="0.00" arrival="492.00" arrivalLane="dst10_0" arrivalPos="17.44" arrivalSpeed="13.37" duration="98.00" routeLength="1241.99" waitSteps="0" timeLoss="8.38" rerouteNo="1" devices="tripinfo_7to10.3 routing_7to10.3" vType="DEFAULT_VEHTYPE" speedFactor="1.00" vaporized=""/>
    <tripinfo id="17to19.4" depart="266.00" departLane="e170_0" departPos="5.10" departSpeed="10.00" departDelay="0.00" arrival="493.00" arrivalLane="dst19_0" arrivalPos="8.80" arrivalSpeed="13.51" duration="227.00" routeLength="812.24" waitSteps="157" timeLoss="168.25" rerouteNo="1" devices="tripinfo_17to19.4 routing_17to19.4" vType="DEFAULT_VEHTYPE" speedFactor="1.00" vaporized=""/>
    <tripinfo id="17to19.2" depart="217.00" departLane="e170_0" departPos="5.10" departSpeed="10.00" departDelay="0.00" arrival="495.00" arrivalLane="dst19_0" arrivalPos="8.80" arrivalSpeed="12.73" duration="278.00" routeLength="812.24" waitSteps="204" timeLoss="219.10" rerouteNo="1" devices="tripinfo_17to19.2 routing_17to19.2" vType="DEFAULT_VEHTYPE" speedFactor="1.00" vaporized=""/>
    <tripinfo id="17to19.3" depart="247.00" departLane="e170_0" departPos="5.10" departSpeed="10.00" departDelay="0.00" arrival="497.00" arrivalLane="dst19_0" arrivalPos="8.80" arrivalSpeed="13.46" duration="250.00" routeLength="812.24" waitSteps="179" timeLoss="190.80" rerouteNo="1" devices="tripinfo_17to19.3 routing_17to19.3" vType="DEFAULT_VEHTYPE" speedFactor="1.00" vaporized=""/>
    <tripinfo id="19to17.4" depart="345.00" departLane="e190_0" departPos="5.10" departSpeed="7.00" departDelay="0.00" arrival="499.00" arrivalLane="dst17_0" arrivalPos="8.50" arrivalSpeed="13.74" duration="154.00" routeLength="819.31" waitSteps="79" timeLoss="94.84" rerouteNo="1" devices="tripinfo_19to17.4 routing_19to17.4" vType="DEFAULT_VEHTYPE" speedFactor="1.00" vaporized=""/>
    <tripinfo id="17to19.6" depart="317.00" departLane="e170_0" departPos="5.10" departSpeed="10.00" departDelay="0.00" arrival="499.00" arrivalLane="dst19_0" arrivalPos="8.80" arrivalSpeed="13.73" duration="182.00" routeLength="812.24" waitSteps="105" timeLoss="122.59" rerouteNo="1" devices="tripinfo_17to19.6 routing_17to19.6" vType="DEFAULT_VEHTYPE" speedFactor="1.00" vaporized=""/>
    <tripinfo id="17to19.10" depart="382.00" departLane="e170_0" departPos="5.10" departSpeed="10.00" departDelay="0.00" arrival="500.00" arrivalLane="dst19_0" arrivalPos="8.80" arrivalSpeed="12.82" duration="118.00" routeLength="812.24" waitSteps="45" timeLoss="59.39" rerouteNo="1" devices="tripinfo_17to19.10 routing_17to19.10" vType="DEFAULT_VEHTYPE" speedFactor="1.00" vaporized=""/>
    <tripinfo id="19to17.2" depart="271.00" departLane="e190_0" departPos="5.10" departSpeed="7.00" departDelay="0.00" arrival="501.00" arrivalLane="dst17_0" arrivalPos="8.50" arrivalSpeed="13.00" duration="230.00" routeLength="819.31" waitSteps="152" timeLoss="170.65" rerouteNo="1" devices="tripinfo_19to17.2 routing_19to17.2" vType="DEFAULT_VEHTYPE" speedFactor="1.00" vaporized=""/>
    <tripinfo id="17to19.7" depart="332.00" departLane="e170_0" departPos="5.10" departSpeed="10.00" departDelay="0.00" arrival="502.00" arrivalLane="dst19_0" arrivalPos="8.80" arrivalSpeed="12.86" duration="170.00" routeLength="812.24" waitSteps="92" timeLoss="111.13" rerouteNo="1" devices="tripinfo_17to19.7 routing_17to19.7" vType="DEFAULT_VEHTYPE" speedFactor="1.00" vaporized=""/>