<?xml version="1.0" encoding="UTF-8"?>

<!-- generated on 04/18/18 19:55:12 by SUMO Version 0.32.0
<?xml version="1.0" encoding="UTF-8"?>

<configuration xmlns:xsi="http://www.w3.org/2001/XMLSchema-instance" xsi:noNamespaceSchemaLocation="http://sumo.dlr.de/xsd/sumoConfiguration.xsd">

    <input>
        <net-file value="tmp/di-tech-1.net.xml"/>
        <route-files value="tmp/di-tech-1.rou.xml"/>
    </input>

    <output>
        <tripinfo-output value="tmp/tripinfo-1.xml"/>
    </output>

    <time>
        <begin value="0.0"/>
    </time>

    <report>
        <no-warnings value="true"/>
        <no-step-log value="true"/>
    </report>

    <traci_server>
        <remote-port value="8825"/>
    </traci_server>

</configuration>
-->

<tripinfos xmlns:xsi="http://www.w3.org/2001/XMLSchema-instance" xsi:noNamespaceSchemaLocation="http://sumo.dlr.de/xsd/tripinfo_file.xsd">
    <tripinfo id="19to17.0" depart="41.00" departLane="e190_0" departPos="5.10" departSpeed="7.00" departDelay="0.00" arrival="104.00" arrivalLane="dst17_0" arrivalPos="8.50" arrivalSpeed="13.25" duration="63.00" routeLength="819.31" waitSteps="0" timeLoss="3.39" rerouteNo="1" devices="tripinfo_19to17.0 routing_19to17.0" vType="DEFAULT_VEHTYPE" speedFactor="1.00" vaporized=""/>
    <tripinfo id="19to17.1" depart="48.00" departLane="e190_0" departPos="5.10" departSpeed="7.00" departDelay="0.00" arrival="111.00" arrivalLane="dst17_0" arrivalPos="8.50" arrivalSpeed="12.74" duration="63.00" routeLength="819.31" waitSteps="0" timeLoss="3.60" rerouteNo="1" devices="tripinfo_19to17.1 routing_19to17.1" vType="DEFAULT_VEHTYPE" speedFactor="1.00" vaporized=""/>
    <tripinfo id="11to13.0" depart="48.00" departLane="e110_0" departPos="5.10" departSpeed="7.00" departDelay="0.00" arrival="120.00" arrivalLane="dst13_0" arrivalPos="8.54" arrivalSpeed="13.24" duration="72.00" routeLength="934.15" waitSteps="0" timeLoss="3.93" rerouteNo="1" devices="tripinfo_11to13.0 routing_11to13.0" vType="DEFAULT_VEHTYPE" speedFactor="1.00" vaporized=""/>
    <tripinfo id="19to21.0" depart="0.00" departLane="e190_0" departPos="5.10" departSpeed="7.00" departDelay="0.00" arrival="131.00" arrivalLane="dst21_0" arrivalPos="8.53" arrivalSpeed="13.70" duration="131.00" routeLength="1690.32" waitSteps="0" timeLoss="8.85" rerouteNo="1" devices="tripinfo_19to21.0 routing_19to21.0" vType="DEFAULT_VEHTYPE" speedFactor="1.00" vaporized=""/>
    <tripinfo id="7to10.0" depart="37.00" departLane="e70_0" departPos="5.10" departSpeed="6.00" departDelay="0.00" arrival="135.00" arrivalLane="dst10_0" arrivalPos="17.44" arrivalSpeed="12.60" duration="98.00" routeLength="1241.99" waitSteps="0" timeLoss="7.80" rerouteNo="1" devices="tripinfo_7to10.0 routing_7to10.0" vType="DEFAULT_VEHTYPE" speedFactor="1.00" vaporized=""/>
    <tripinfo id="13to11.0" depart="66.00" departLane="e130_0" departPos="5.10" departSpeed="9.00" departDelay="0.00" arrival="137.00" arrivalLane="dst11_0" arrivalPos="8.90" arrivalSpeed="12.79" duration="71.00" routeLength="933.59" waitSteps="0" timeLoss="3.69" rerouteNo="1" devices="tripinfo_13to11.0 routing_13to11.0" vType="DEFAULT_VEHTYPE" speedFactor="1.00" vaporized=""/>
    <tripinfo id="1to7.0" depart="8.00" departLane="e10_0" departPos="5.10" departSpeed="10.00" departDelay="0.00" arrival="150.00" arrivalLane="dst7_0" arrivalPos="8.50" arrivalSpeed="13.79" duration="142.00" routeLength="1511.56" waitSteps="21" timeLoss="33.18" rerouteNo="1" devices="tripinfo_1to7.0 routing_1to7.0" vType="DEFAULT_VEHTYPE" speedFactor="1.00" vaporized=""/>
    <tripinfo id="13to16.0" depart="21.00" departLane="e130_0" departPos="5.10" departSpeed="9.00" departDelay="0.00" arrival="151.00" arrivalLane="dst16_0" arrivalPos="11.34" arrivalSpeed="13.69" duration="130.00" routeLength="1653.35" waitSteps="0" timeLoss="10.76" rerouteNo="1" devices="tripinfo_13to16.0 routing_13to16.0" vType="DEFAULT_VEHTYPE" speedFactor="1.00" vaporized=""/>
    <tripinfo id="13to11.1" depart="80.00" departLane="e130_0" departPos="5.10" departSpeed="9.00" departDelay="0.00" arrival="151.00" arrivalLane="dst11_0" arrivalPos="8.90" arrivalSpeed="13.00" duration="71.00" routeLength="933.59" waitSteps="0" timeLoss="3.39" rerouteNo="1" devices="tripinfo_13to11.1 routing_13to11.1" vType="DEFAULT_VEHTYPE" speedFactor="1.00" vaporized=""/>
    <tripinfo id="19to21.1" depart="25.00" departLane="e190_0" departPos="5.10" departSpeed="7.00" departDelay="0.00" arrival="156.00" arrivalLane="dst21_0" arrivalPos="8.53" arrivalSpeed="13.45" duration="131.00" routeLength="1690.32" waitSteps="0" timeLoss="8.64" rerouteNo="1" devices="tripinfo_19to21.1 routing_19to21.1" vType="DEFAULT_VEHTYPE" speedFactor="1.00" vaporized=""/>
    <tripinfo id="19to21.2" depart="32.00" departLane="e190_0" departPos="5.10" departSpeed="7.00" departDelay="0.00" arrival="162.00" arrivalLane="dst21_0" arrivalPos="8.53" arrivalSpeed="13.03" duration="130.00" routeLength="1690.32" waitSteps="0" timeLoss="8.23" rerouteNo="1" devices="tripinfo_19to21.2 routing_19to21.2" vType="DEFAULT_VEHTYPE" speedFactor="1.00" vaporized=""/>
    <tripinfo id="21to17.0" depart="37.00" departLane="e210_0" departPos="5.10" departSpeed="13.00" departDelay="0.00" arrival="178.00" arrivalLane="dst17_0" arrivalPos="8.50" arrivalSpeed="13.17" duration="141.00" routeLength="1836.68" waitSteps="0" timeLoss="8.25" rerouteNo="1" devices="tripinfo_21to17.0 routing_21to17.0" vType="DEFAULT_VEHTYPE" speedFactor="1.00" vaporized=""/>
    <tripinfo id="19to21.3" depart="63.00" departLane="e190_0" departPos="5.10" departSpeed="7.00" departDelay="0.00" arrival="192.00" arrivalLane="dst21_0" arrivalPos="8.53" arrivalSpeed="12.76" duration="129.00" routeLength="1690.32" waitSteps="0" timeLoss="7.34" rerouteNo="1" devices="tripinfo_19to21.3 routing_19to21.3" vType="DEFAULT_VEHTYPE" speedFactor="1.00" vaporized=""/>
    <tripinfo id="8to1.0" depart="38.00" departLane="e80_0" departPos="5.10" departSpeed="6.00" departDelay="0.00" arrival="197.00" arrivalLane="dst1_0" arrivalPos="3.70" arrivalSpeed="13.73" duration="159.00" routeLength="2080.54" waitSteps="0" timeLoss="9.19" rerouteNo="1" devices="tripinfo_8to1.0 routing_8to1.0" vType="DEFAULT_VEHTYPE" speedFactor="1.00" vaporized=""/>
    <tripinfo id="8to2.0" depart="58.00" departLane="e80_0" departPos="5.10" departSpeed="6.00" departDelay="0.00" arrival="219.00" arrivalLane="dst2_0" arrivalPos="12.10" arrivalSpeed="12.69" duration="161.00" routeLength="2074.77" waitSteps="0" timeLoss="11.04" rerouteNo="1" devices="tripinfo_8to2.0 routing_8to2.0" vType="DEFAULT_VEHTYPE" speedFactor="1.00" vaporized=""/>
    <tripinfo id="19to21.4" depart="90.00" departLane="e190_0" departPos="5.10" departSpeed="7.00" departDelay="0.00" arrival="221.00" arrivalLane="dst21_0" arrivalPos="8.53" arrivalSpeed="12.94" duration="131.00" routeLength="1690.32" waitSteps="0" timeLoss="8.51" rerouteNo="1" devices="tripinfo_19to21.4 routing_19to21.4" vType="DEFAULT_VEHTYPE" speedFactor="1.00" vaporized=""/>
    <tripinfo id="1to8.0" depart="15.00" departLane="e10_0" departPos="5.10" departSpeed="10.00" departDelay="0.00" arrival="239.00" arrivalLane="dst8_0" arrivalPos="14.38" arrivalSpeed="13.01" duration="224.00" routeLength="2099.36" waitSteps="55" timeLoss="72.14" rerouteNo="1" devices="tripinfo_1to8.0 routing_1to8.0" vType="DEFAULT_VEHTYPE" speedFactor="1.00" vaporized=""/>
    <tripinfo id="1to2.0" depart="17.00" departLane="e10_0" departPos="5.10" departSpeed="10.00" departDelay="1.00" arrival="249.00" arrivalLane="dst2_0" arrivalPos="12.10" arrivalSpeed="13.58" duration="232.00" routeLength="1006.06" waitSteps="145" timeLoss="158.78" rerouteNo="1" devices="tripinfo_1to2.0 routing_1to2.0" vType="DEFAULT_VEHTYPE" speedFactor="1.00" vaporized=""/>
    <tripinfo id="20to14.0" depart="33.00" departLane="e200_0" departPos="5.10" departSpeed="6.00" departDelay="0.00" arrival="257.00" arrivalLane="dst14_0" arrivalPos="1.01" arrivalSpeed="12.62" duration="224.00" routeLength="2770.66" waitSteps="1" timeLoss="24.66" rerouteNo="1" devices="tripinfo_20to14.0 routing_20to14.0" vType="DEFAULT_VEHTYPE" speedFactor="1.00" vaporized=""/>
    <tripinfo id="16to21.0" depart="57.00" departLane="e160_0" departPos="5.10" departSpeed="6.00" departDelay="0.00" arrival="269.00" arrivalLane="dst21_0" arrivalPos="8.53" arrivalSpeed="13.46" duration="212.00" routeLength="2781.99" waitSteps="0" timeLoss="11.82" rerouteNo="1" devices="tripinfo_16to21.0 routing_16to21.0" vType="DEFAULT_VEHTYPE" speedFactor="1.00" vaporized=""/>
    <tripinfo id="20to22.0" depart="108.00" departLane="e200_0" departPos="5.10" departSpeed="6.00" departDelay="0.00" arrival="271.00" arrivalLane="dst22_0" arrivalPos="8.80" arrivalSpeed="12.75" duration="163.00" routeLength="860.38" waitSteps="90" timeLoss="100.55" rerouteNo="1" devices="tripinfo_20to22.0 routing_20to22.0" vType="DEFAULT_VEHTYPE" speedFactor="1.00" vaporized=""/>
    <tripinfo id="20to22.1" depart="153.00" departLane="e200_0" departPos="5.10" departSpeed="6.00" departDelay="2.00" arrival="275.00" arrivalLane="dst22_0" arrivalPos="8.80" arrivalSpeed="13.53" duration="122.00" routeLength="860.38" waitSteps="48" timeLoss="59.98" rerouteNo="1" devices="tripinfo_20to22.1 routing_20to22.1" vType="DEFAULT_VEHTYPE" speedFactor="1.00" vaporized=""/>
    <tripinfo id="20to22.2" depart="155.00" departLane="e200_0" departPos="5.10" departSpeed="6.00" departDelay="3.00" arrival="277.00" arrivalLane="dst22_0" arrivalPos="8.80" arrivalSpeed="13.46" duration="122.00" routeLength="860.38" waitSteps="48" timeLoss="59.75" rerouteNo="1" devices="tripinfo_20to22.2 routing_20to22.2" vType="DEFAULT_VEHTYPE" speedFactor="1.00" vaporized=""/>
    <tripinfo id="20to22.3" depart="189.00" departLane="e200_0" departPos="5.10" departSpeed="6.00" departDelay="0.00" arrival="279.00" arrivalLane="dst22_0" arrivalPos="8.80" arrivalSpeed="13.51" duration="90.00" routeLength="860.38" waitSteps="17" timeLoss="27.54" rerouteNo="1" devices="tripinfo_20to22.3 routing_20to22.3" vType="DEFAULT_VEHTYPE" speedFactor="1.00" vaporized=""/>
    <tripinfo id="17to22.0" depart="146.00" departLane="e170_0" departPos="5.10" departSpeed="10.00" departDelay="0.00" arrival="282.00" arrivalLane="dst22_0" arrivalPos="8.80" arrivalSpeed="13.70" duration="136.00" routeLength="1692.98" waitSteps="1" timeLoss="13.58" rerouteNo="1" devices="tripinfo_17to22.0 routing_17to22.0" vType="DEFAULT_VEHTYPE" speedFactor="1.00" vaporized=""/>
    <tripinfo id="19to14.0" depart="111.00" departLane="e190_0" departPos="5.10" departSpeed="7.00" departDelay="0.00" arrival="286.00" arrivalLane="dst14_0" arrivalPos="1.01" arrivalSpeed="13.03" duration="175.00" routeLength="1830.67" waitSteps="28" timeLoss="43.29" rerouteNo="1" devices="tripinfo_19to14.0 routing_19to14.0" vType="DEFAULT_VEHTYPE" speedFactor="1.00" vaporized=""/>
    <tripinfo id="17to19.0" depart="117.00" departLane="e170_0" departPos="5.10" departSpeed="10.00" departDelay="0.00" arrival="288.00" arrivalLane="dst19_0" arrivalPos="8.80" arrivalSpeed="12.65" duration="171.00" routeLength="812.24" waitSteps="104" timeLoss="112.57" rerouteNo="1" devices="tripinfo_17to19.0 routing_17to19.0" vType="DEFAULT_VEHTYPE" speedFactor="1.00" vaporized=""/>
    <tripinfo id="22to20.0" depart="133.00" departLane="e220_0" departPos="5.10" departSpeed="5.00" departDelay="0.00" arrival="288.00" arrivalLane="dst20_0" arrivalPos="8.57" arrivalSpeed="13.27" duration="155.00" routeLength="860.48" waitSteps="77" timeLoss="92.76" rerouteNo="1" devices="tripinfo_22to20.0 routing_22to20.0" vType="DEFAULT_VEHTYPE" speedFactor="1.00" vaporized=""/>
    <tripinfo id="17to19.1" depart="123.00" departLane="e170_0" departPos="5.10" departSpeed="10.00" departDelay="0.00" arrival="290.00" arrivalLane="dst19_0" arrivalPos="8.80" arrivalSpeed="13.36" duration="167.00" routeLength="812.24" waitSteps="95" timeLoss="108.30" rerouteNo="1" devices="tripinfo_17to19.1 routing_17to19.1" vType="DEFAULT_VEHTYPE" speedFactor="1.00" vaporized=""/>
    <tripinfo id="22to20.1" depart="184.00" departLane="e220_0" departPos="5.10" departSpeed="5.00" departDelay="0.00" arrival="290.00" arrivalLane="dst20_0" arrivalPos="8.57" arrivalSpeed="13.56" duration="106.00" routeLength="860.48" waitSteps="28" timeLoss="43.77" rerouteNo="1" devices="tripinfo_22to20.1 routing_22to20.1" vType="DEFAULT_VEHTYPE" speedFactor="1.00" vaporized=""/>
    <tripinfo id="17to19.4" depart="196.00" departLane="e170_0" departPos="5.10" departSpeed="10.00" departDelay="0.00" arrival="292.00" arrivalLane="dst19_0" arrivalPos="8.80" arrivalSpeed="12.61" duration="96.00" routeLength="812.24" waitSteps="24" timeLoss="37.10" rerouteNo="1" devices="tripinfo_17to19.4 routing_17to19.4" vType="DEFAULT_VEHTYPE" speedFactor="1.00" vaporized=""/>
    <tripinfo id="22to20.2" depart="228.00" departLane="e220_0" departPos="5.10" departSpeed="5.00" departDelay="0.00" arrival="294.00" arrivalLane="dst20_0" arrivalPos="8.57" arrivalSpeed="12.78" duration="66.00" routeLength="860.48" waitSteps="0" timeLoss="3.76" rerouteNo="1" devices="tripinfo_22to20.2 routing_22to20.2" vType="DEFAULT_VEHTYPE" speedFactor="1.00" vaporized=""/>
    <tripinfo id="17to19.2" depart="150.00" departLane="e170_0" departPos="5.10" departSpeed="10.00" departDelay="0.00" arrival="294.00" arrivalLane="dst19_0" arrivalPos="8.80" arrivalSpeed="12.80" duration="144.00" routeLength="812.24" waitSteps="68" timeLoss="84.86" rerouteNo="1" devices="tripinfo_17to19.2 routing_17to19.2" vType="DEFAULT_VEHTYPE" speedFactor="1.00" vaporized=""/>
    <tripinfo id="17to19.3" depart="180.00" departLane="e170_0" departPos="5.10" departSpeed="10.00" departDelay="0.00" arrival="295.00" arrivalLane="dst19_0" arrivalPos="8.80" arrivalSpeed="13.17" duration="115.00" routeLength="812.24" waitSteps="45" timeLoss="56.49" rerouteNo="1" devices="tripinfo_17to19.3 routing_17to19.3" vType="DEFAULT_VEHTYPE" speedFactor="1.00" vaporized=""/>
    <tripinfo id="17to19.5" depart="235.00" departLane="e170_0" departPos="5.10" departSpeed="10.00" departDelay="0.00" arrival="297.00" arrivalLane="dst19_0" arrivalPos="8.80" arrivalSpeed="12.70" duration="62.00" routeLength="812.24" waitSteps="0" timeLoss="3.43" rerouteNo="1" devices="tripinfo_17to19.5 routing_17to19.5" vType="DEFAULT_VEHTYPE" speedFactor="1.00" vaporized=""/>
    <tripinfo id="19to17.3" depart="141.00" departLane="e190_0" departPos="5.10" departSpeed="7.00" departDelay="1.00" arrival="298.00" arrivalLane="dst17_0" arrivalPos="8.50" arrivalSpeed="13.45" duration="157.00" routeLength="819.31" waitSteps="87" timeLoss="97.63" rerouteNo="1" devices="tripinfo_19to17.3 routing_19to17.3" vType="DEFAULT_VEHTYPE" speedFactor="1.00" vaporized=""/>
    <tripinfo id="19to17.4" depart="147.00" departLane="e190_0" departPos="5.10" departSpeed="7.00" departDelay="0.00" arrival="300.00" arrivalLane="dst17_0" arrivalPos="8.50" arrivalSpeed="12.83" duration="153.00" routeLength="819.31" waitSteps="77" timeLoss="93.53" rerouteNo="1" devices="tripinfo_19to17.4 routing_19to17.4" vType="DEFAULT_VEHTYPE" speedFactor="1.00" vaporized=""/>
    <tripinfo id="22to20.3" depart="235.00" departLane="e220_0" departPos="5.10" departSpeed="5.00" departDelay="0.00" arrival="301.00" arrivalLane="dst20_0" arrivalPos="8.57" arrivalSpeed="13.72" duration="66.00" routeLength="860.48" waitSteps="0" timeLoss="3.53" rerouteNo="1" devices="tripinfo_22to20.3 routing_22to20.3" vType="DEFAULT_VEHTYPE" speedFactor="1.00" vaporized=""/>
    <tripinfo id="19to17.2" depart="116.00" departLane="e190_0" departPos="5.10" departSpeed="7.00" departDelay="0.00" arrival="302.00" arrivalLane="dst17_0" arrivalPos="8.50" arrivalSpeed="12.80" duration="186.00" routeLength="819.31" waitSteps="115" timeLoss="126.18" rerouteNo="1" devices="tripinfo_19to17.2 routing_19to17.2" vType="DEFAULT_VEHTYPE" speedFactor="1.00" vaporized=""/>
    <tripinfo id="19to17.6" depart="228.00" departLane="e190_0" departPos="5.10" departSpeed="7.00" departDelay="0.00" arrival="303.00" arrivalLane="dst17_0" arrivalPos="8.50" arrivalSpeed="13.88" duration="75.00" routeLength="819.31" waitSteps="0" timeLoss="15.84" rerouteNo="1" devices="tripinfo_19to17.6 routing_19to17.6" vType="DEFAULT_VEHTYPE" speedFactor="1.00" vaporized=""/>
    <tripinfo id="19to17.5" depart="210.00" departLane="e190_0" departPos="5.10" departSpeed="7.00" departDelay="0.00" arrival="305.00" arrivalLane="dst17_0" arrivalPos="8.50" arrivalSpeed="13.04" duration="95.00" routeLength="819.31" waitSteps="17" timeLoss="35.71" rerouteNo="1" devices="tripinfo_19to17.5 routing_19to17.5" vType="DEFAULT_VEHTYPE" speedFactor="1.00" vaporized=""/>
    <tripinfo id="19to17.7" depart="235.00" departLane="e190_0" departPos="5.10" departSpeed="7.00" departDelay="0.00" arrival="307.00" arrivalLane="dst17_0" arrivalPos="8.50" arrivalSpeed="13.37" duration="72.00" routeLength="819.31" waitSteps="0" timeLoss="12.63" rerouteNo="1" devices="tripinfo_19to17.7 routing_19to17.7" vType="DEFAULT_VEHTYPE" speedFactor="1.00" vaporized=""/>
    <tripinfo id="17to19.6" depart="245.00" departLane="e170_0" departPos="5.10" departSpeed="10.00" departDelay="0.00" arrival="307.00" arrivalLane="dst19_0" arrivalPos="8.80" arrivalSpeed="12.73" duration="62.00" routeLength="812.24" waitSteps="0" timeLoss="2.77" rerouteNo="1" devices="tripinfo_17to19.6 routing_17to19.6" vType="DEFAULT_VEHTYPE" speedFactor="1.00" vaporized=""/>
    <tripinfo id="19to14.1" depart="166.00" departLane="e190_0" departPos="5.10" departSpeed="7.00" departDelay="0.00" arrival="308.00" arrivalLane="dst14_0" arrivalPos="1.01" arrivalSpeed="13.26" duration="142.00" routeLength="1830.67" waitSteps="0" timeLoss="9.46" rerouteNo="1" devices="tripinfo_19to14.1 routing_19to14.1" vType="DEFAULT_VEHTYPE" speedFactor="1.00" vaporized=""/>
    <tripinfo id="17to19.7" depart="269.00" departLane="e170_0" departPos="5.10" departSpeed="10.00" departDelay="0.00" arrival="330.00" arrivalLane="dst19_0" arrivalPos="8.80" arrivalSpeed="12.95" duration="61.00" routeLength="812.24" waitSteps="0" timeLoss="2.50" rerouteNo="1" devices="tripinfo_17to19.7 routing_17to19.7" vType="DEFAULT_VEHTYPE" speedFactor="1.00" vaporized=""/>
    <tripinfo id="19to17.8" depart="268.00" departLane="e190_0" departPos="5.10" departSpeed="7.00" departDelay="0.00" arrival="331.00" arrivalLane="dst17_0" arrivalPos="8.50" arrivalSpeed="13.63" duration="63.00" routeLength="819.31" waitSteps="0" timeLoss="3.42" rerouteNo="1" devices="tripinfo_19to17.8 routing_19to17.8" vType="DEFAULT_VEHTYPE" speedFactor="1.00" vaporized=""/>
    <tripinfo id="20to22.4" depart="266.00" departLane="e200_0" departPos="5.10" departSpeed="6.00" departDelay="0.00" arrival="332.00" arrivalLane="dst22_0" arrivalPos="8.80" arrivalSpeed="13.40" duration="66.00" routeLength="860.38" waitSteps="0" timeLoss="3.95" rerouteNo="1" devices="tripinfo_20to22.4 routing_20to22.4" vType="DEFAULT_VEHTYPE" speedFactor="1.00" vaporized=""/>
    <tripinfo id="20to22.5" depart="271.00" departLane="e200_0" departPos="5.10" departSpeed="6.00" departDelay="0.00" arrival="337.00" arrivalLane="dst22_0" arrivalPos="8.80" arrivalSpeed="12.76" duration="66.00" routeLength="860.38" waitSteps="0" timeLoss="3.61" rerouteNo="1" devices="tripinfo_20to22.5 routing_20to22.5" vType="DEFAULT_VEHTYPE" speedFactor="1.00" vaporized=""/>
    <tripinfo id="20to22.6" depart="273.00" departLane="e200_0" departPos="5.10" departSpeed="6.00" departDelay="0.00" arrival="339.00" arrivalLane="dst22_0" arrivalPos="8.80" arrivalSpeed="13.05" duration="66.00" routeLength="860.38" waitSteps="0" timeLoss="3.70" rerouteNo="1" devices="tripinfo_20to22.6 routing_20to22.6" vType="DEFAULT_VEHTYPE" speedFactor="1.00" vaporized=""/>
    <tripinfo id="19to17.9" depart="279.00" departLane="e190_0" departPos="5.10" departSpeed="7.00" departDelay="0.00" arrival="342.00" arrivalLane="dst17_0" arrivalPos="8.50" arrivalSpeed="13.65" duration="63.00" routeLength="819.31" waitSteps="0" timeLoss="3.56" rerouteNo="1" devices="tripinfo_19to17.9 routing_19to17.9" vType="DEFAULT_VEHTYPE" speedFactor="1.00" vaporized=""/>
    <tripinfo id="7to10.1" depart="247.00" departLane="e70_0" departPos="5.10" departSpeed="6.00" departDelay="0.00" arrival="345.00" arrivalLane="dst10_0" arrivalPos="17.44" arrivalSpeed="12.72" duration="98.00" routeLength="1241.99" waitSteps="0" timeLoss="8.08" rerouteNo="1" devices="tripinfo_7to10.1 routing_7to10.1" vType="DEFAULT_VEHTYPE" speedFactor="1.00" vaporized=""/>
    <tripinfo id="19to17.10" depart="292.00" departLane="e190_0" departPos="5.10" departSpeed="7.00" departDelay="0.00" arrival="355.00" arrivalLane="dst17_0" arrivalPos="8.50" arrivalSpeed="13.80" duration="63.00" routeLength="819.31" waitSteps="0" timeLoss="3.55" rerouteNo="1" devices="tripinfo_19to17.10 routing_19to17.10" vType="DEFAULT_VEHTYPE" speedFactor="1.00" vaporized=""/>
    <tripinfo id="13to11.2" depart="262.00" departLane="e130_0" departPos="5.10" departSpeed="9.00" departDelay="0.00" arrival="360.00" arrivalLane="dst11_0" arrivalPos="8.90" arrivalSpeed="12.97" duration="98.00" routeLength="933.59" waitSteps="21" timeLoss="30.59" rerouteNo="1" devices="tripinfo_13to11.2 routing_13to11.2" vType="DEFAULT_VEHTYPE" speedFactor="1.00" vaporized=""/>
    <tripinfo id="19to17.11" depart="299.00" departLane="e190_0" departPos="5.10" departSpeed="7.00" departDelay="0.00" arrival="362.00" arrivalLane="dst17_0" arrivalPos="8.50" arrivalSpeed="13.26" duration="63.00" routeLength="819.31" waitSteps="0" timeLoss="3.26" rerouteNo="1" devices="tripinfo_19to17.11 routing_19to17.11" vType="DEFAULT_VEHTYPE" speedFactor="1.00" vaporized=""/>
    <tripinfo id="19to17.12" depart="302.00" departLane="e190_0" departPos="5.10" departSpeed="7.00" departDelay="0.00" arrival="365.00" arrivalLane="dst17_0" arrivalPos="8.50" arrivalSpeed="12.99" duration="63.00" routeLength="819.31" waitSteps="0" timeLoss="3.18" rerouteNo="1" devices="tripinfo_19to17.12 routing_19to17.12" vType="DEFAULT_VEHTYPE" speedFactor="1.00" vaporized=""/>
    <tripinfo id="4to2.0" depart="82.00" departLane="e40_0" departPos="5.10" departSpeed="7.00" departDelay="0.00" arrival="367.00" arrivalLane="dst2_0" arrivalPos="12.10" arrivalSpeed="12.74" duration="285.00" routeLength="931.32" waitSteps="207" timeLoss="217.18" rerouteNo="1" devices="tripinfo_4to2.0 routing_4to2.0" vType="DEFAULT_VEHTYPE" speedFactor="1.00" vaporized=""/>
    <tripinfo id="4to2.1" depart="108.00" departLane="e40_0" departPos="5.10" departSpeed="7.00" departDelay="1.00" arrival="371.00" arrivalLane="dst2_0" arrivalPos="12.10" arrivalSpeed="12.93" duration="263.00" routeLength="931.32" waitSteps="184" timeLoss="195.78" rerouteNo="1" devices="tripinfo_4to2.1 routing_4to2.1" vType="DEFAULT_VEHTYPE" speedFactor="1.00" vaporized=""/>
    <tripinfo id="20to22.7" depart="306.00" departLane="e200_0" departPos="5.10" departSpeed="6.00" departDelay="0.00" arrival="373.00" arrivalLane="dst22_0" arrivalPos="8.80" arrivalSpeed="13.75" duration="67.00" routeLength="860.38" waitSteps="0" timeLoss="4.14" rerouteNo="1" devices="tripinfo_20to22.7 routing_20to22.7" vType="DEFAULT_VEHTYPE" speedFactor="1.00" vaporized=""/>
    <tripinfo id="13to11.3" depart="306.00" departLane="e130_0" departPos="5.10" departSpeed="9.00" departDelay="0.00" arrival="378.00" arrivalLane="dst11_0" arrivalPos="8.90" arrivalSpeed="13.62" duration="72.00" routeLength="933.59" waitSteps="0" timeLoss="3.95" rerouteNo="1" devices="tripinfo_13to11.3 routing_13to11.3" vType="DEFAULT_VEHTYPE" speedFactor="1.00" vaporized=""/>
    <tripinfo id="20to22.8" depart="314.00" departLane="e200_0" departPos="5.10" departSpeed="6.00" departDelay="0.00" arrival="380.00" arrivalLane="dst22_0" arrivalPos="8.80" arrivalSpeed="13.69" duration="66.00" routeLength="860.38" waitSteps="0" timeLoss="3.84" rerouteNo="1" devices="tripinfo_20to22.8 routing_20to22.8" vType="DEFAULT_VEHTYPE" speedFactor="1.00" vaporized=""/>
    <tripinfo id="17to19.8" depart="324.00" departLane="e170_0" departPos="5.10" departSpeed="10.00" departDelay="0.00" arrival="385.00" arrivalLane="dst19_0" arrivalPos="8.80" arrivalSpeed="13.84" duration="61.00" routeLength="812.24" waitSteps="0" timeLoss="2.48" rerouteNo="1" devices="tripinfo_17to19.8 routing_17to19.8" vType="DEFAULT_VEHTYPE" speedFactor="1.00" vaporized=""/>
    <tripinfo id="14to16.0" depart="189.00" departLane="e140_0" departPos="5.10" departSpeed="8.00" departDelay="0.00" arrival="386.00" arrivalLane="dst16_0" arrivalPos="11.34" arrivalSpeed="13.18" duration="197.00" routeLength="880.56" waitSteps="126" timeLoss="133.02" rerouteNo="1" devices="tripinfo_14to16.0 routing_14to16.0" vType="DEFAULT_VEHTYPE" speedFactor="1.00" vaporized=""/>
    <tripinfo id="14to16.1" depart="282.00" departLane="e140_0" departPos="5.10" departSpeed="8.00" departDelay="0.00" arrival="392.00" arrivalLane="dst16_0" arrivalPos="11.34" arrivalSpeed="13.39" duration="110.00" routeLength="880.56" waitSteps="35" timeLoss="46.41" rerouteNo="1" devices="tripinfo_14to16.1 routing_14to16.1" vType="DEFAULT_VEHTYPE" speedFactor="1.00" vaporized=""/>
    <tripinfo id="17to19.9" depart="332.00" departLane="e170_0" departPos="5.10" departSpeed="10.00" departDelay="0.00" arrival="394.00" arrivalLane="dst19_0" arrivalPos="8.80" arrivalSpeed="12.64" duration="62.00" routeLength="812.24" waitSteps="0" timeLoss="2.76" rerouteNo="1" devices="tripinfo_17to19.9 routing_17to19.9" vType="DEFAULT_VEHTYPE" speedFactor="1.00" vaporized=""/>
    <tripinfo id="21to22.0" depart="52.00" departLane="e210_0" departPos="5.10" departSpeed="13.00" departDelay="0.00" arrival="399.00" arrivalLane="dst22_0" arrivalPos="8.80" arrivalSpeed="13.70" duration="347.00" routeLength="944.64" waitSteps="269" timeLoss="278.15" rerouteNo="1" devices="tripinfo_21to22.0 routing_21to22.0" vType="DEFAULT_VEHTYPE" speedFactor="1.00" vaporized=""/>
    <tripinfo id="4to1.0" depart="327.00" departLane="e40_0" departPos="5.10" departSpeed="7.00" departDelay="0.00" arrival="400.00" arrivalLane="dst1_0" arrivalPos="3.70" arrivalSpeed="12.63" duration="73.00" routeLength="923.14" waitSteps="0" timeLoss="6.47" rerouteNo="1" devices="tripinfo_4to1.0 routing_4to1.0" vType="DEFAULT_VEHTYPE" speedFactor="1.00" vaporized=""/>
    <tripinfo id="4to7.0" depart="106.00" departLane="e40_0" departPos="5.10" departSpeed="7.00" departDelay="0.00" arrival="407.00" arrivalLane="dst7_0" arrivalPos="8.50" arrivalSpeed="13.87" duration="301.00" routeLength="1423.05" waitSteps="185" timeLoss="198.09" rerouteNo="1" devices="tripinfo_4to7.0 routing_4to7.0" vType="DEFAULT_VEHTYPE" speedFactor="1.00" vaporized=""/>
    <tripinfo id="11to13.1" depart="307.00" departLane="e110_0" departPos="5.10" departSpeed="7.00" departDelay="0.00" arrival="411.00" arrivalLane="dst13_0" arrivalPos="8.54" arrivalSpeed="13.64" duration="104.00" routeLength="934.15" waitSteps="27" timeLoss="36.46" rerouteNo="1" devices="tripinfo_11to13.1 routing_11to13.1" vType="DEFAULT_VEHTYPE" speedFactor="1.00" vaporized=""/>
    <tripinfo id="4to7.1" depart="110.00" departLane="e40_0" departPos="5.10" departSpeed="7.00" departDelay="1.00" arrival="411.00" arrivalLane="dst7_0" arrivalPos="8.50" arrivalSpeed="12.79" duration="301.00" routeLength="1423.05" waitSteps="184" timeLoss="198.53" rerouteNo="1" devices="tripinfo_4to7.1 routing_4to7.1" vType="DEFAULT_VEHTYPE" speedFactor="1.00" vaporized=""/>
    <tripinfo id="21to19.0" depart="49.00" departLane="e210_0" departPos="5.10" departSpeed="13.00" departDelay="0.00" arrival="412.00" arrivalLane="dst19_0" arrivalPos="8.80" arrivalSpeed="12.69" duration="363.00" routeLength="1709.39" waitSteps="227" timeLoss="239.54" rerouteNo="1" devices="tripinfo_21to19.0 routing_21to19.0" vType="DEFAULT_VEHTYPE" speedFactor="1.00" vaporized=""/>
    <tripinfo id="4to7.2" depart="195.00" departLane="e40_0" departPos="5.10" departSpeed="7.00" departDelay="0.00" arrival="416.00" arrivalLane="dst7_0" arrivalPos="8.50" arrivalSpeed="13.74" duration="221.00" routeLength="1423.05" waitSteps="101" timeLoss="118.22" rerouteNo="1" devices="tripinfo_4to7.2 routing_4to7.2" vType="DEFAULT_VEHTYPE" speedFactor="1.00" vaporized=""/>
    <tripinfo id="11to2.0" depart="162.00" departLane="e110_0" departPos="5.10" departSpeed="7.00" departDelay="0.00" arrival="418.00" arrivalLane="dst2_0" arrivalPos="12.10" arrivalSpeed="12.65" duration="256.00" routeLength="2411.39" waitSteps="60" timeLoss="82.30" rerouteNo="1" devices="tripinfo_11to2.0 routing_11to2.0" vType="DEFAULT_VEHTYPE" speedFactor="1.00" vaporized=""/>
    <tripinfo id="10to5.0" depart="158.00" departLane="e100_0" departPos="5.10" departSpeed="5.00" departDelay="0.00" arrival="421.00" arrivalLane="dst5_0" arrivalPos="0.94" arrivalSpeed="12.98" duration="263.00" routeLength="1362.94" waitSteps="151" timeLoss="164.19" rerouteNo="1" devices="tripinfo_10to5.0 routing_10to5.0" vType="DEFAULT_VEHTYPE" speedFactor="1.00" vaporized=""/>
    <tripinfo id="17to21.0" depart="215.00" departLane="e170_0" departPos="5.10" departSpeed="10.00" departDelay="0.00" arrival="427.00" arrivalLane="dst21_0" arrivalPos="8.53" arrivalSpeed="12.92" duration="212.00" routeLength="1839.16" waitSteps="68" timeLoss="79.15" rerouteNo="1" devices="tripinfo_17to21.0 routing_17to21.0" vType="DEFAULT_VEHTYPE" speedFactor="1.00" vaporized=""/>
    <tripinfo id="19to21.5" depart="139.00" departLane="e190_0" departPos="5.10" departSpeed="7.00" departDelay="0.00" arrival="429.00" arrivalLane="dst21_0" arrivalPos="8.53" arrivalSpeed="12.68" duration="290.00" routeLength="1690.32" waitSteps="149" timeLoss="167.61" rerouteNo="1" devices="tripinfo_19to21.5 routing_19to21.5" vType="DEFAULT_VEHTYPE" speedFactor="1.00" vaporized=""/>