<?xml version="1.0" encoding="UTF-8"?>

<!-- generated on 04/16/18 12:41:27 by SUMO Version 0.32.0
<?xml version="1.0" encoding="UTF-8"?>

<configuration xmlns:xsi="http://www.w3.org/2001/XMLSchema-instance" xsi:noNamespaceSchemaLocation="http://sumo.dlr.de/xsd/sumoConfiguration.xsd">

    <input>
        <net-file value="tmp/di-tech.net.xml"/>
        <route-files value="tmp/di-tech.rou.xml"/>
    </input>

    <output>
        <tripinfo-output value="tmp/tripinfo.xml"/>
    </output>

    <time>
        <begin value="0.0"/>
    </time>

    <report>
        <no-warnings value="true"/>
        <no-step-log value="true"/>
    </report>

    <traci_server>
        <remote-port value="63684"/>
    </traci_server>

</configuration>
-->

<tripinfos xmlns:xsi="http://www.w3.org/2001/XMLSchema-instance" xsi:noNamespaceSchemaLocation="http://sumo.dlr.de/xsd/tripinfo_file.xsd">
    <tripinfo id="19to17.0" depart="41.00" departLane="e190_0" departPos="5.10" departSpeed="7.00" departDelay="0.00" arrival="104.00" arrivalLane="dst17_0" arrivalPos="8.50" arrivalSpeed="13.25" duration="63.00" routeLength="819.31" waitSteps="0" timeLoss="3.64" rerouteNo="1" devices="tripinfo_19to17.0 routing_19to17.0" vType="DEFAULT_VEHTYPE" speedFactor="1.00" vaporized=""/>
    <tripinfo id="19to17.1" depart="48.00" departLane="e190_0" departPos="5.10" departSpeed="7.00" departDelay="0.00" arrival="111.00" arrivalLane="dst17_0" arrivalPos="8.50" arrivalSpeed="12.74" duration="63.00" routeLength="819.31" waitSteps="0" timeLoss="3.35" rerouteNo="1" devices="tripinfo_19to17.1 routing_19to17.1" vType="DEFAULT_VEHTYPE" speedFactor="1.00" vaporized=""/>
    <tripinfo id="1to7.0" depart="8.00" departLane="e10_0" departPos="5.10" departSpeed="10.00" departDelay="0.00" arrival="125.00" arrivalLane="dst7_0" arrivalPos="8.50" arrivalSpeed="13.32" duration="117.00" routeLength="1511.56" waitSteps="0" timeLoss="7.80" rerouteNo="1" devices="tripinfo_1to7.0 routing_1to7.0" vType="DEFAULT_VEHTYPE" speedFactor="1.00" vaporized=""/>
    <tripinfo id="19to21.0" depart="0.00" departLane="e190_0" departPos="5.10" departSpeed="7.00" departDelay="0.00" arrival="131.00" arrivalLane="dst21_0" arrivalPos="8.53" arrivalSpeed="12.67" duration="131.00" routeLength="1690.32" waitSteps="0" timeLoss="9.04" rerouteNo="1" devices="tripinfo_19to21.0 routing_19to21.0" vType="DEFAULT_VEHTYPE" speedFactor="1.00" vaporized=""/>
    <tripinfo id="7to10.0" depart="37.00" departLane="e70_0" departPos="5.10" departSpeed="6.00" departDelay="0.00" arrival="134.00" arrivalLane="dst10_0" arrivalPos="17.44" arrivalSpeed="13.23" duration="97.00" routeLength="1241.99" waitSteps="0" timeLoss="7.53" rerouteNo="1" devices="tripinfo_7to10.0 routing_7to10.0" vType="DEFAULT_VEHTYPE" speedFactor="1.00" vaporized=""/>
    <tripinfo id="13to16.0" depart="21.00" departLane="e130_0" departPos="5.10" departSpeed="9.00" departDelay="0.00" arrival="151.00" arrivalLane="dst16_0" arrivalPos="11.34" arrivalSpeed="12.73" duration="130.00" routeLength="1653.35" waitSteps="0" timeLoss="10.96" rerouteNo="1" devices="tripinfo_13to16.0 routing_13to16.0" vType="DEFAULT_VEHTYPE" speedFactor="1.00" vaporized=""/>
    <tripinfo id="19to21.1" depart="25.00" departLane="e190_0" departPos="5.10" departSpeed="7.00" departDelay="0.00" arrival="156.00" arrivalLane="dst21_0" arrivalPos="8.53" arrivalSpeed="12.70" duration="131.00" routeLength="1690.32" waitSteps="0" timeLoss="9.37" rerouteNo="1" devices="tripinfo_19to21.1 routing_19to21.1" vType="DEFAULT_VEHTYPE" speedFactor="1.00" vaporized=""/>
    <tripinfo id="19to21.2" depart="32.00" departLane="e190_0" departPos="5.10" departSpeed="7.00" departDelay="0.00" arrival="162.00" arrivalLane="dst21_0" arrivalPos="8.53" arrivalSpeed="13.19" duration="130.00" routeLength="1690.32" waitSteps="0" timeLoss="7.83" rerouteNo="1" devices="tripinfo_19to21.2 routing_19to21.2" vType="DEFAULT_VEHTYPE" speedFactor="1.00" vaporized=""/>
    <tripinfo id="1to2.0" depart="17.00" departLane="e10_0" departPos="5.10" departSpeed="10.00" departDelay="1.00" arrival="170.00" arrivalLane="dst2_0" arrivalPos="12.10" arrivalSpeed="13.38" duration="153.00" routeLength="1006.06" waitSteps="71" timeLoss="79.83" rerouteNo="1" devices="tripinfo_1to2.0 routing_1to2.0" vType="DEFAULT_VEHTYPE" speedFactor="1.00" vaporized=""/>
    <tripinfo id="13to11.0" depart="66.00" departLane="e130_0" departPos="5.10" departSpeed="9.00" departDelay="0.00" arrival="175.00" arrivalLane="dst11_0" arrivalPos="8.90" arrivalSpeed="13.29" duration="109.00" routeLength="933.59" waitSteps="33" timeLoss="41.68" rerouteNo="1" devices="tripinfo_13to11.0 routing_13to11.0" vType="DEFAULT_VEHTYPE" speedFactor="1.00" vaporized=""/>
    <tripinfo id="13to11.1" depart="80.00" departLane="e130_0" departPos="5.10" departSpeed="9.00" departDelay="0.00" arrival="177.00" arrivalLane="dst11_0" arrivalPos="8.90" arrivalSpeed="12.81" duration="97.00" routeLength="933.59" waitSteps="21" timeLoss="29.80" rerouteNo="1" devices="tripinfo_13to11.1 routing_13to11.1" vType="DEFAULT_VEHTYPE" speedFactor="1.00" vaporized=""/>
    <tripinfo id="11to13.0" depart="48.00" departLane="e110_0" departPos="5.10" departSpeed="7.00" departDelay="0.00" arrival="185.00" arrivalLane="dst13_0" arrivalPos="8.54" arrivalSpeed="13.38" duration="137.00" routeLength="934.15" waitSteps="60" timeLoss="68.96" rerouteNo="1" devices="tripinfo_11to13.0 routing_11to13.0" vType="DEFAULT_VEHTYPE" speedFactor="1.00" vaporized=""/>
    <tripinfo id="21to17.0" depart="37.00" departLane="e210_0" departPos="5.10" departSpeed="13.00" departDelay="0.00" arrival="192.00" arrivalLane="dst17_0" arrivalPos="8.50" arrivalSpeed="13.08" duration="155.00" routeLength="1836.68" waitSteps="7" timeLoss="22.22" rerouteNo="1" devices="tripinfo_21to17.0 routing_21to17.0" vType="DEFAULT_VEHTYPE" speedFactor="1.00" vaporized=""/>
    <tripinfo id="19to21.3" depart="63.00" departLane="e190_0" departPos="5.10" departSpeed="7.00" departDelay="0.00" arrival="194.00" arrivalLane="dst21_0" arrivalPos="8.53" arrivalSpeed="13.10" duration="131.00" routeLength="1690.32" waitSteps="0" timeLoss="8.80" rerouteNo="1" devices="tripinfo_19to21.3 routing_19to21.3" vType="DEFAULT_VEHTYPE" speedFactor="1.00" vaporized=""/>
    <tripinfo id="4to2.0" depart="82.00" departLane="e40_0" departPos="5.10" departSpeed="7.00" departDelay="0.00" arrival="209.00" arrivalLane="dst2_0" arrivalPos="12.10" arrivalSpeed="13.58" duration="127.00" routeLength="931.32" waitSteps="50" timeLoss="59.28" rerouteNo="1" devices="tripinfo_4to2.0 routing_4to2.0" vType="DEFAULT_VEHTYPE" speedFactor="1.00" vaporized=""/>
    <tripinfo id="14to16.0" depart="143.00" departLane="e140_0" departPos="5.10" departSpeed="8.00" departDelay="0.00" arrival="210.00" arrivalLane="dst16_0" arrivalPos="11.34" arrivalSpeed="12.81" duration="67.00" routeLength="880.56" waitSteps="0" timeLoss="3.36" rerouteNo="1" devices="tripinfo_14to16.0 routing_14to16.0" vType="DEFAULT_VEHTYPE" speedFactor="1.00" vaporized=""/>
    <tripinfo id="20to22.0" depart="108.00" departLane="e200_0" departPos="5.10" departSpeed="6.00" departDelay="0.00" arrival="210.00" arrivalLane="dst22_0" arrivalPos="8.80" arrivalSpeed="13.34" duration="102.00" routeLength="860.38" waitSteps="30" timeLoss="39.59" rerouteNo="1" devices="tripinfo_20to22.0 routing_20to22.0" vType="DEFAULT_VEHTYPE" speedFactor="1.00" vaporized=""/>
    <tripinfo id="4to2.1" depart="108.00" departLane="e40_0" departPos="5.10" departSpeed="7.00" departDelay="1.00" arrival="214.00" arrivalLane="dst2_0" arrivalPos="12.10" arrivalSpeed="12.68" duration="106.00" routeLength="931.32" waitSteps="27" timeLoss="38.18" rerouteNo="1" devices="tripinfo_4to2.1 routing_4to2.1" vType="DEFAULT_VEHTYPE" speedFactor="1.00" vaporized=""/>
    <tripinfo id="11to13.1" depart="144.00" departLane="e110_0" departPos="5.10" departSpeed="7.00" departDelay="0.00" arrival="215.00" arrivalLane="dst13_0" arrivalPos="8.54" arrivalSpeed="12.67" duration="71.00" routeLength="934.15" waitSteps="0" timeLoss="3.44" rerouteNo="1" devices="tripinfo_11to13.1 routing_11to13.1" vType="DEFAULT_VEHTYPE" speedFactor="1.00" vaporized=""/>
    <tripinfo id="8to2.0" depart="58.00" departLane="e80_0" departPos="5.10" departSpeed="6.00" departDelay="0.00" arrival="220.00" arrivalLane="dst2_0" arrivalPos="12.10" arrivalSpeed="13.26" duration="162.00" routeLength="2074.77" waitSteps="0" timeLoss="12.19" rerouteNo="1" devices="tripinfo_8to2.0 routing_8to2.0" vType="DEFAULT_VEHTYPE" speedFactor="1.00" vaporized=""/>
    <tripinfo id="8to1.0" depart="38.00" departLane="e80_0" departPos="5.10" departSpeed="6.00" departDelay="0.00" arrival="243.00" arrivalLane="dst1_0" arrivalPos="3.70" arrivalSpeed="12.72" duration="205.00" routeLength="2080.54" waitSteps="41" timeLoss="54.96" rerouteNo="1" devices="tripinfo_8to1.0 routing_8to1.0" vType="DEFAULT_VEHTYPE" speedFactor="1.00" vaporized=""/>
    <tripinfo id="11to1.0" depart="30.00" departLane="e110_0" departPos="5.10" departSpeed="7.00" departDelay="0.00" arrival="245.00" arrivalLane="dst1_0" arrivalPos="3.70" arrivalSpeed="13.82" duration="215.00" routeLength="2417.16" waitSteps="26" timeLoss="40.70" rerouteNo="1" devices="tripinfo_11to1.0 routing_11to1.0" vType="DEFAULT_VEHTYPE" speedFactor="1.00" vaporized=""/>
    <tripinfo id="20to22.1" depart="181.00" departLane="e200_0" departPos="5.10" departSpeed="6.00" departDelay="0.00" arrival="247.00" arrivalLane="dst22_0" arrivalPos="8.80" arrivalSpeed="13.55" duration="66.00" routeLength="860.38" waitSteps="0" timeLoss="4.07" rerouteNo="1" devices="tripinfo_20to22.1 routing_20to22.1" vType="DEFAULT_VEHTYPE" speedFactor="1.00" vaporized=""/>
    <tripinfo id="4to7.0" depart="106.00" departLane="e40_0" departPos="5.10" departSpeed="7.00" departDelay="0.00" arrival="249.00" arrivalLane="dst7_0" arrivalPos="8.50" arrivalSpeed="13.15" duration="143.00" routeLength="1423.05" waitSteps="27" timeLoss="40.56" rerouteNo="1" devices="tripinfo_4to7.0 routing_4to7.0" vType="DEFAULT_VEHTYPE" speedFactor="1.00" vaporized=""/>
    <tripinfo id="1to8.0" depart="15.00" departLane="e10_0" departPos="5.10" departSpeed="10.00" departDelay="0.00" arrival="254.00" arrivalLane="dst8_0" arrivalPos="14.38" arrivalSpeed="13.03" duration="239.00" routeLength="2099.36" waitSteps="74" timeLoss="87.94" rerouteNo="1" devices="tripinfo_1to8.0 routing_1to8.0" vType="DEFAULT_VEHTYPE" speedFactor="1.00" vaporized=""/>
    <tripinfo id="4to7.1" depart="110.00" departLane="e40_0" departPos="5.10" departSpeed="7.00" departDelay="1.00" arrival="254.00" arrivalLane="dst7_0" arrivalPos="8.50" arrivalSpeed="12.98" duration="144.00" routeLength="1423.05" waitSteps="25" timeLoss="41.37" rerouteNo="1" devices="tripinfo_4to7.1 routing_4to7.1" vType="DEFAULT_VEHTYPE" speedFactor="1.00" vaporized=""/>
    <tripinfo id="4to7.2" depart="146.00" departLane="e40_0" departPos="5.10" departSpeed="7.00" departDelay="0.00" arrival="257.00" arrivalLane="dst7_0" arrivalPos="8.50" arrivalSpeed="13.19" duration="111.00" routeLength="1423.05" waitSteps="0" timeLoss="8.55" rerouteNo="1" devices="tripinfo_4to7.2 routing_4to7.2" vType="DEFAULT_VEHTYPE" speedFactor="1.00" vaporized=""/>
    <tripinfo id="22to20.0" depart="193.00" departLane="e220_0" departPos="5.10" departSpeed="5.00" departDelay="0.00" arrival="260.00" arrivalLane="dst20_0" arrivalPos="8.57" arrivalSpeed="13.42" duration="67.00" routeLength="860.48" waitSteps="0" timeLoss="4.37" rerouteNo="1" devices="tripinfo_22to20.0 routing_22to20.0" vType="DEFAULT_VEHTYPE" speedFactor="1.00" vaporized=""/>
    <tripinfo id="20to14.0" depart="33.00" departLane="e200_0" departPos="5.10" departSpeed="6.00" departDelay="0.00" arrival="264.00" arrivalLane="dst14_0" arrivalPos="1.01" arrivalSpeed="13.36" duration="231.00" routeLength="2770.66" waitSteps="12" timeLoss="30.94" rerouteNo="1" devices="tripinfo_20to14.0 routing_20to14.0" vType="DEFAULT_VEHTYPE" speedFactor="1.00" vaporized=""/>
    <tripinfo id="20to22.2" depart="211.00" departLane="e200_0" departPos="5.10" departSpeed="6.00" departDelay="0.00" arrival="277.00" arrivalLane="dst22_0" arrivalPos="8.80" arrivalSpeed="13.01" duration="66.00" routeLength="860.38" waitSteps="0" timeLoss="3.81" rerouteNo="1" devices="tripinfo_20to22.2 routing_20to22.2" vType="DEFAULT_VEHTYPE" speedFactor="1.00" vaporized=""/>
    <tripinfo id="1to7.1" depart="27.00" departLane="e10_0" departPos="5.10" departSpeed="10.00" departDelay="0.00" arrival="284.00" arrivalLane="dst7_0" arrivalPos="8.50" arrivalSpeed="13.24" duration="257.00" routeLength="1511.56" waitSteps="131" timeLoss="147.56" rerouteNo="1" devices="tripinfo_1to7.1 routing_1to7.1" vType="DEFAULT_VEHTYPE" speedFactor="1.00" vaporized=""/>
    <tripinfo id="22to20.1" depart="222.00" departLane="e220_0" departPos="5.10" departSpeed="5.00" departDelay="0.00" arrival="288.00" arrivalLane="dst20_0" arrivalPos="8.57" arrivalSpeed="13.32" duration="66.00" routeLength="860.48" waitSteps="0" timeLoss="3.93" rerouteNo="1" devices="tripinfo_22to20.1 routing_22to20.1" vType="DEFAULT_VEHTYPE" speedFactor="1.00" vaporized=""/>
    <tripinfo id="22to20.2" depart="225.00" departLane="e220_0" departPos="5.10" departSpeed="5.00" departDelay="0.00" arrival="291.00" arrivalLane="dst20_0" arrivalPos="8.57" arrivalSpeed="13.15" duration="66.00" routeLength="860.48" waitSteps="0" timeLoss="4.02" rerouteNo="1" devices="tripinfo_22to20.2 routing_22to20.2" vType="DEFAULT_VEHTYPE" speedFactor="1.00" vaporized=""/>
    <tripinfo id="17to19.0" depart="117.00" departLane="e170_0" departPos="5.10" departSpeed="10.00" departDelay="0.00" arrival="292.00" arrivalLane="dst19_0" arrivalPos="8.80" arrivalSpeed="12.98" duration="175.00" routeLength="812.24" waitSteps="108" timeLoss="116.46" rerouteNo="1" devices="tripinfo_17to19.0 routing_17to19.0" vType="DEFAULT_VEHTYPE" speedFactor="1.00" vaporized=""/>
    <tripinfo id="17to19.1" depart="155.00" departLane="e170_0" departPos="5.10" departSpeed="10.00" departDelay="0.00" arrival="294.00" arrivalLane="dst19_0" arrivalPos="8.80" arrivalSpeed="13.60" duration="139.00" routeLength="812.24" waitSteps="65" timeLoss="80.11" rerouteNo="1" devices="tripinfo_17to19.1 routing_17to19.1" vType="DEFAULT_VEHTYPE" speedFactor="1.00" vaporized=""/>
    <tripinfo id="21to22.0" depart="52.00" departLane="e210_0" departPos="5.10" departSpeed="13.00" departDelay="0.00" arrival="294.00" arrivalLane="dst22_0" arrivalPos="8.80" arrivalSpeed="13.28" duration="242.00" routeLength="944.64" waitSteps="163" timeLoss="173.68" rerouteNo="1" devices="tripinfo_21to22.0 routing_21to22.0" vType="DEFAULT_VEHTYPE" speedFactor="1.00" vaporized=""/>
    <tripinfo id="19to17.2" depart="116.00" departLane="e190_0" departPos="5.10" departSpeed="7.00" departDelay="0.00" arrival="302.00" arrivalLane="dst17_0" arrivalPos="8.50" arrivalSpeed="13.05" duration="186.00" routeLength="819.31" waitSteps="118" timeLoss="126.91" rerouteNo="1" devices="tripinfo_19to17.2 routing_19to17.2" vType="DEFAULT_VEHTYPE" speedFactor="1.00" vaporized=""/>
    <tripinfo id="19to17.3" depart="124.00" departLane="e190_0" departPos="5.10" departSpeed="7.00" departDelay="0.00" arrival="304.00" arrivalLane="dst17_0" arrivalPos="8.50" arrivalSpeed="13.10" duration="180.00" routeLength="819.31" waitSteps="106" timeLoss="120.67" rerouteNo="1" devices="tripinfo_19to17.3 routing_19to17.3" vType="DEFAULT_VEHTYPE" speedFactor="1.00" vaporized=""/>
    <tripinfo id="19to17.7" depart="170.00" departLane="e190_0" departPos="5.10" departSpeed="7.00" departDelay="1.00" arrival="306.00" arrivalLane="dst17_0" arrivalPos="8.50" arrivalSpeed="13.58" duration="136.00" routeLength="819.31" waitSteps="60" timeLoss="76.72" rerouteNo="1" devices="tripinfo_19to17.7 routing_19to17.7" vType="DEFAULT_VEHTYPE" speedFactor="1.00" vaporized=""/>
    <tripinfo id="17to19.2" depart="245.00" departLane="e170_0" departPos="5.10" departSpeed="10.00" departDelay="0.00" arrival="307.00" arrivalLane="dst19_0" arrivalPos="8.80" arrivalSpeed="13.27" duration="62.00" routeLength="812.24" waitSteps="0" timeLoss="2.74" rerouteNo="1" devices="tripinfo_17to19.2 routing_17to19.2" vType="DEFAULT_VEHTYPE" speedFactor="1.00" vaporized=""/>
    <tripinfo id="19to17.9" depart="177.00" departLane="e190_0" departPos="5.10" departSpeed="7.00" departDelay="1.00" arrival="308.00" arrivalLane="dst17_0" arrivalPos="8.50" arrivalSpeed="12.62" duration="131.00" routeLength="819.31" waitSteps="57" timeLoss="71.50" rerouteNo="1" devices="tripinfo_19to17.9 routing_19to17.9" vType="DEFAULT_VEHTYPE" speedFactor="1.00" vaporized=""/>
    <tripinfo id="19to17.6" depart="165.00" departLane="e190_0" departPos="5.10" departSpeed="7.00" departDelay="1.00" arrival="310.00" arrivalLane="dst17_0" arrivalPos="8.50" arrivalSpeed="13.38" duration="145.00" routeLength="819.31" waitSteps="66" timeLoss="85.29" rerouteNo="1" devices="tripinfo_19to17.6 routing_19to17.6" vType="DEFAULT_VEHTYPE" speedFactor="1.00" vaporized=""/>
    <tripinfo id="19to17.5" depart="163.00" departLane="e190_0" departPos="5.10" departSpeed="7.00" departDelay="1.00" arrival="311.00" arrivalLane="dst17_0" arrivalPos="8.50" arrivalSpeed="13.17" duration="148.00" routeLength="819.31" waitSteps="66" timeLoss="88.89" rerouteNo="1" devices="tripinfo_19to17.5 routing_19to17.5" vType="DEFAULT_VEHTYPE" speedFactor="1.00" vaporized=""/>
    <tripinfo id="19to17.13" depart="238.00" departLane="e190_0" departPos="5.10" departSpeed="7.00" departDelay="1.00" arrival="313.00" arrivalLane="dst17_0" arrivalPos="8.50" arrivalSpeed="12.85" duration="75.00" routeLength="819.31" waitSteps="4" timeLoss="15.61" rerouteNo="1" devices="tripinfo_19to17.13 routing_19to17.13" vType="DEFAULT_VEHTYPE" speedFactor="1.00" vaporized=""/>
    <tripinfo id="8to2.1" depart="152.00" departLane="e80_0" departPos="5.10" departSpeed="6.00" departDelay="0.00" arrival="313.00" arrivalLane="dst2_0" arrivalPos="12.10" arrivalSpeed="12.88" duration="161.00" routeLength="2074.77" waitSteps="0" timeLoss="11.20" rerouteNo="1" devices="tripinfo_8to2.1 routing_8to2.1" vType="DEFAULT_VEHTYPE" speedFactor="1.00" vaporized=""/>
    <tripinfo id="19to17.4" depart="131.00" departLane="e190_0" departPos="5.10" departSpeed="7.00" departDelay="0.00" arrival="315.00" arrivalLane="dst17_0" arrivalPos="8.50" arrivalSpeed="13.10" duration="184.00" routeLength="819.31" waitSteps="105" timeLoss="124.30" rerouteNo="1" devices="tripinfo_19to17.4 routing_19to17.4" vType="DEFAULT_VEHTYPE" speedFactor="1.00" vaporized=""/>
    <tripinfo id="19to17.8" depart="175.00" departLane="e190_0" departPos="5.10" departSpeed="7.00" departDelay="0.00" arrival="316.00" arrivalLane="dst17_0" arrivalPos="8.50" arrivalSpeed="13.72" duration="141.00" routeLength="819.31" waitSteps="58" timeLoss="82.02" rerouteNo="1" devices="tripinfo_19to17.8 routing_19to17.8" vType="DEFAULT_VEHTYPE" speedFactor="1.00" vaporized=""/>
    <tripinfo id="19to17.10" depart="199.00" departLane="e190_0" departPos="5.10" departSpeed="7.00" departDelay="0.00" arrival="318.00" arrivalLane="dst17_0" arrivalPos="8.50" arrivalSpeed="13.19" duration="119.00" routeLength="819.31" waitSteps="34" timeLoss="60.02" rerouteNo="1" devices="tripinfo_19to17.10 routing_19to17.10" vType="DEFAULT_VEHTYPE" speedFactor="1.00" vaporized=""/>
    <tripinfo id="19to17.12" depart="236.00" departLane="e190_0" departPos="5.10" departSpeed="7.00" departDelay="0.00" arrival="320.00" arrivalLane="dst17_0" arrivalPos="8.50" arrivalSpeed="13.55" duration="84.00" routeLength="819.31" waitSteps="2" timeLoss="24.81" rerouteNo="1" devices="tripinfo_19to17.12 routing_19to17.12" vType="DEFAULT_VEHTYPE" speedFactor="1.00" vaporized=""/>
    <tripinfo id="19to17.11" depart="219.00" departLane="e190_0" departPos="5.10" departSpeed="7.00" departDelay="0.00" arrival="322.00" arrivalLane="dst17_0" arrivalPos="8.50" arrivalSpeed="13.48" duration="103.00" routeLength="819.31" waitSteps="17" timeLoss="43.56" rerouteNo="1" devices="tripinfo_19to17.11 routing_19to17.11" vType="DEFAULT_VEHTYPE" speedFactor="1.00" vaporized=""/>
    <tripinfo id="19to17.14" depart="250.00" departLane="e190_0" departPos="5.10" departSpeed="7.00" departDelay="0.00" arrival="324.00" arrivalLane="dst17_0" arrivalPos="8.50" arrivalSpeed="13.40" duration="74.00" routeLength="819.31" waitSteps="0" timeLoss="14.29" rerouteNo="1" devices="tripinfo_19to17.14 routing_19to17.14" vType="DEFAULT_VEHTYPE" speedFactor="1.00" vaporized=""/>
    <tripinfo id="20to11.0" depart="50.00" departLane="e200_0" departPos="5.10" departSpeed="6.00" departDelay="0.00" arrival="328.00" arrivalLane="dst11_0" arrivalPos="8.90" arrivalSpeed="13.18" duration="278.00" routeLength="3583.50" waitSteps="0" timeLoss="19.35" rerouteNo="1" devices="tripinfo_20to11.0 routing_20to11.0" vType="DEFAULT_VEHTYPE" speedFactor="1.00" vaporized=""/>
    <tripinfo id="16to22.0" depart="74.00" departLane="e160_0" departPos="5.10" departSpeed="6.00" departDelay="0.00" arrival="328.00" arrivalLane="dst22_0" arrivalPos="8.80" arrivalSpeed="13.33" duration="254.00" routeLength="2635.81" waitSteps="44" timeLoss="64.08" rerouteNo="1" devices="tripinfo_16to22.0 routing_16to22.0" vType="DEFAULT_VEHTYPE" speedFactor="1.00" vaporized=""/>
    <tripinfo id="1to10.0" depart="52.00" departLane="e10_0" departPos="5.10" departSpeed="10.00" departDelay="0.00" arrival="330.00" arrivalLane="dst10_0" arrivalPos="17.44" arrivalSpeed="12.93" duration="278.00" routeLength="2040.97" waitSteps="106" timeLoss="130.35" rerouteNo="1" devices="tripinfo_1to10.0 routing_1to10.0" vType="DEFAULT_VEHTYPE" speedFactor="1.00" vaporized=""/>
    <tripinfo id="19to21.4" depart="90.00" departLane="e190_0" departPos="5.10" departSpeed="7.00" departDelay="0.00" arrival="332.00" arrivalLane="dst21_0" arrivalPos="8.53" arrivalSpeed="13.70" duration="242.00" routeLength="1690.32" waitSteps="106" timeLoss="119.56" rerouteNo="1" devices="tripinfo_19to21.4 routing_19to21.4" vType="DEFAULT_VEHTYPE" speedFactor="1.00" vaporized=""/>
    <tripinfo id="19to14.0" depart="111.00" departLane="e190_0" departPos="5.10" departSpeed="7.00" departDelay="0.00" arrival="334.00" arrivalLane="dst14_0" arrivalPos="1.01" arrivalSpeed="12.79" duration="223.00" routeLength="1830.67" waitSteps="76" timeLoss="90.72" rerouteNo="1" devices="tripinfo_19to14.0 routing_19to14.0" vType="DEFAULT_VEHTYPE" speedFactor="1.00" vaporized=""/>
    <tripinfo id="16to21.0" depart="57.00" departLane="e160_0" departPos="5.10" departSpeed="6.00" departDelay="0.00" arrival="334.00" arrivalLane="dst21_0" arrivalPos="8.53" arrivalSpeed="12.73" duration="277.00" routeLength="2781.99" waitSteps="57" timeLoss="76.08" rerouteNo="1" devices="tripinfo_16to21.0 routing_16to21.0" vType="DEFAULT_VEHTYPE" speedFactor="1.00" vaporized=""/>
    <tripinfo id="16to21.1" depart="63.00" departLane="e160_0" departPos="5.10" departSpeed="6.00" departDelay="0.00" arrival="335.00" arrivalLane="dst21_0" arrivalPos="8.53" arrivalSpeed="12.80" duration="272.00" routeLength="2781.99" waitSteps="54" timeLoss="71.83" rerouteNo="1" devices="tripinfo_16to21.1 routing_16to21.1" vType="DEFAULT_VEHTYPE" speedFactor="1.00" vaporized=""/>
    <tripinfo id="7to10.1" depart="237.00" departLane="e70_0" departPos="5.10" departSpeed="6.00" departDelay="0.00" arrival="335.00" arrivalLane="dst10_0" arrivalPos="17.44" arrivalSpeed="13.76" duration="98.00" routeLength="1241.99" waitSteps="0" timeLoss="8.51" rerouteNo="1" devices="tripinfo_7to10.1 routing_7to10.1" vType="DEFAULT_VEHTYPE" speedFactor="1.00" vaporized=""/>
    <tripinfo id="21to19.0" depart="49.00" departLane="e210_0" departPos="5.10" departSpeed="13.00" departDelay="0.00" arrival="336.00" arrivalLane="dst19_0" arrivalPos="8.80" arrivalSpeed="13.59" duration="287.00" routeLength="1709.39" waitSteps="148" timeLoss="163.24" rerouteNo="1" devices="tripinfo_21to19.0 routing_21to19.0" vType="DEFAULT_VEHTYPE" speedFactor="1.00" vaporized=""/>
    <tripinfo id="19to17.15" depart="275.00" departLane="e190_0" departPos="5.10" departSpeed="7.00" departDelay="0.00" arrival="338.00" arrivalLane="dst17_0" arrivalPos="8.50" arrivalSpeed="13.04" duration="63.00" routeLength="819.31" waitSteps="0" timeLoss="3.22" rerouteNo="1" devices="tripinfo_19to17.15 routing_19to17.15" vType="DEFAULT_VEHTYPE" speedFactor="1.00" vaporized=""/>
    <tripinfo id="16to21.2" depart="105.00" departLane="e160_0" departPos="5.10" departSpeed="6.00" departDelay="0.00" arrival="341.00" arrivalLane="dst21_0" arrivalPos="8.53" arrivalSpeed="13.65" duration="236.00" routeLength="2781.99" waitSteps="14" timeLoss="35.01" rerouteNo="1" devices="tripinfo_16to21.2 routing_16to21.2" vType="DEFAULT_VEHTYPE" speedFactor="1.00" vaporized=""/>
    <tripinfo id="21to20.0" depart="244.00" departLane="e210_0" departPos="5.10" departSpeed="13.00" departDelay="0.00" arrival="341.00" arrivalLane="dst20_0" arrivalPos="8.57" arrivalSpeed="13.69" duration="97.00" routeLength="997.73" waitSteps="11" timeLoss="24.44" rerouteNo="1" devices="tripinfo_21to20.0 routing_21to20.0" vType="DEFAULT_VEHTYPE" speedFactor="1.00" vaporized=""/>
    <tripinfo id="7to10.2" depart="245.00" departLane="e70_0" departPos="5.10" departSpeed="6.00" departDelay="0.00" arrival="343.00" arrivalLane="dst10_0" arrivalPos="17.44" arrivalSpeed="13.77" duration="98.00" routeLength="1241.99" waitSteps="0" timeLoss="7.76" rerouteNo="1" devices="tripinfo_7to10.2 routing_7to10.2" vType="DEFAULT_VEHTYPE" speedFactor="1.00" vaporized=""/>
    <tripinfo id="17to21.0" depart="143.00" departLane="e170_0" departPos="5.10" departSpeed="10.00" departDelay="0.00" arrival="343.00" arrivalLane="dst21_0" arrivalPos="8.53" arrivalSpeed="12.99" duration="200.00" routeLength="1839.16" waitSteps="46" timeLoss="66.93" rerouteNo="1" devices="tripinfo_17to21.0 routing_17to21.0" vType="DEFAULT_VEHTYPE" speedFactor="1.00" vaporized=""/>
    <tripinfo id="14to16.1" depart="186.00" departLane="e140_0" departPos="5.10" departSpeed="8.00" departDelay="0.00" arrival="344.00" arrivalLane="dst16_0" arrivalPos="11.34" arrivalSpeed="12.70" duration="158.00" routeLength="880.56" waitSteps="84" timeLoss="93.75" rerouteNo="1" devices="tripinfo_14to16.1 routing_14to16.1" vType="DEFAULT_VEHTYPE" speedFactor="1.00" vaporized=""/>
    <tripinfo id="21to20.1" depart="262.00" departLane="e210_0" departPos="5.10" departSpeed="13.00" departDelay="2.00" arrival="345.00" arrivalLane="dst20_0" arrivalPos="8.57" arrivalSpeed="13.18" duration="83.00" routeLength="997.73" waitSteps="0" timeLoss="11.19" rerouteNo="1" devices="tripinfo_21to20.1 routing_21to20.1" vType="DEFAULT_VEHTYPE" speedFactor="1.00" vaporized=""/>
    <tripinfo id="17to21.1" depart="213.00" departLane="e170_0" departPos="5.10" departSpeed="10.00" departDelay="0.00" arrival="353.00" arrivalLane="dst21_0" arrivalPos="8.53" arrivalSpeed="12.96" duration="140.00" routeLength="1839.16" waitSteps="0" timeLoss="7.07" rerouteNo="1" devices="tripinfo_17to21.1 routing_17to21.1" vType="DEFAULT_VEHTYPE" speedFactor="1.00" vaporized=""/>
    <tripinfo id="11to1.1" depart="86.00" departLane="e110_0" departPos="5.10" departSpeed="7.00" departDelay="0.00" arrival="361.00" arrivalLane="dst1_0" arrivalPos="3.70" arrivalSpeed="13.15" duration="275.00" routeLength="2417.16" waitSteps="82" timeLoss="100.88" rerouteNo="1" devices="tripinfo_11to1.1 routing_11to1.1" vType="DEFAULT_VEHTYPE" speedFactor="1.00" vaporized=""/>
    <tripinfo id="11to1.2" depart="96.00" departLane="e110_0" departPos="5.10" departSpeed="7.00" departDelay="0.00" arrival="364.00" arrivalLane="dst1_0" arrivalPos="3.70" arrivalSpeed="13.14" duration="268.00" routeLength="2417.16" waitSteps="69" timeLoss="93.62" rerouteNo="1" devices="tripinfo_11to1.2 routing_11to1.2" vType="DEFAULT_VEHTYPE" speedFactor="1.00" vaporized=""/>
    <tripinfo id="11to1.3" depart="155.00" departLane="e110_0" departPos="5.10" departSpeed="7.00" departDelay="0.00" arrival="366.00" arrivalLane="dst1_0" arrivalPos="3.70" arrivalSpeed="13.56" duration="211.00" routeLength="2417.16" waitSteps="19" timeLoss="36.40" rerouteNo="1" devices="tripinfo_11to1.3 routing_11to1.3" vType="DEFAULT_VEHTYPE" speedFactor="1.00" vaporized=""/>
    <tripinfo id="19to21.5" depart="134.00" departLane="e190_0" departPos="5.10" departSpeed="7.00" departDelay="0.00" arrival="372.00" arrivalLane="dst21_0" arrivalPos="8.53" arrivalSpeed="12.66" duration="238.00" routeLength="1690.32" waitSteps="102" timeLoss="116.32" rerouteNo="1" devices="tripinfo_19to21.5 routing_19to21.5" vType="DEFAULT_VEHTYPE" speedFactor="1.00" vaporized=""/>
    <tripinfo id="1to2.1" depart="67.00" departLane="e10_0" departPos="5.10" departSpeed="10.00" departDelay="0.00" arrival="372.00" arrivalLane="dst2_0" arrivalPos="12.10" arrivalSpeed="13.15" duration="305.00" routeLength="1006.06" waitSteps="211" timeLoss="231.90" rerouteNo="1" devices="tripinfo_1to2.1 routing_1to2.1" vType="DEFAULT_VEHTYPE" speedFactor="1.00" vaporized=""/>
    <tripinfo id="13to11.2" depart="195.00" departLane="e130_0" departPos="5.10" departSpeed="9.00" departDelay="0.00" arrival="375.00" arrivalLane="dst11_0" arrivalPos="8.90" arrivalSpeed="12.88" duration="180.00" routeLength="933.59" waitSteps="103" timeLoss="112.20" rerouteNo="1" devices="tripinfo_13to11.2 routing_13to11.2" vType="DEFAULT_VEHTYPE" speedFactor="1.00" vaporized=""/>
    <tripinfo id="19to21.6" depart="161.00" departLane="e190_0" departPos="5.10" departSpeed="7.00" departDelay="0.00" arrival="376.00" arrivalLane="dst21_0" arrivalPos="8.53" arrivalSpeed="12.84" duration="215.00" routeLength="1690.32" waitSteps="79" timeLoss="92.50" rerouteNo="1" devices="tripinfo_19to21.6 routing_19to21.6" vType="DEFAULT_VEHTYPE" speedFactor="1.00" vaporized=""/>