<?xml version="1.0" encoding="UTF-8"?>

<!-- generated on 04/18/18 19:55:12 by SUMO Version 0.32.0
<?xml version="1.0" encoding="UTF-8"?>

<configuration xmlns:xsi="http://www.w3.org/2001/XMLSchema-instance" xsi:noNamespaceSchemaLocation="http://sumo.dlr.de/xsd/sumoConfiguration.xsd">

    <input>
        <net-file value="tmp/di-tech-4.net.xml"/>
        <route-files value="tmp/di-tech-4.rou.xml"/>
    </input>

    <output>
        <tripinfo-output value="tmp/tripinfo-4.xml"/>
    </output>

    <time>
        <begin value="0.0"/>
    </time>

    <report>
        <no-warnings value="true"/>
        <no-step-log value="true"/>
    </report>

    <traci_server>
        <remote-port value="8828"/>
    </traci_server>

</configuration>
-->

<tripinfos xmlns:xsi="http://www.w3.org/2001/XMLSchema-instance" xsi:noNamespaceSchemaLocation="http://sumo.dlr.de/xsd/tripinfo_file.xsd">
    <tripinfo id="19to17.0" depart="41.00" departLane="e190_0" departPos="5.10" departSpeed="7.00" departDelay="0.00" arrival="104.00" arrivalLane="dst17_0" arrivalPos="8.50" arrivalSpeed="13.25" duration="63.00" routeLength="819.31" waitSteps="0" timeLoss="3.29" rerouteNo="1" devices="tripinfo_19to17.0 routing_19to17.0" vType="DEFAULT_VEHTYPE" speedFactor="1.00" vaporized=""/>
    <tripinfo id="19to17.1" depart="48.00" departLane="e190_0" departPos="5.10" departSpeed="7.00" departDelay="0.00" arrival="111.00" arrivalLane="dst17_0" arrivalPos="8.50" arrivalSpeed="12.74" duration="63.00" routeLength="819.31" waitSteps="0" timeLoss="3.58" rerouteNo="1" devices="tripinfo_19to17.1 routing_19to17.1" vType="DEFAULT_VEHTYPE" speedFactor="1.00" vaporized=""/>
    <tripinfo id="11to13.0" depart="48.00" departLane="e110_0" departPos="5.10" departSpeed="7.00" departDelay="0.00" arrival="120.00" arrivalLane="dst13_0" arrivalPos="8.54" arrivalSpeed="13.24" duration="72.00" routeLength="934.15" waitSteps="0" timeLoss="3.90" rerouteNo="1" devices="tripinfo_11to13.0 routing_11to13.0" vType="DEFAULT_VEHTYPE" speedFactor="1.00" vaporized=""/>
    <tripinfo id="19to21.0" depart="0.00" departLane="e190_0" departPos="5.10" departSpeed="7.00" departDelay="0.00" arrival="131.00" arrivalLane="dst21_0" arrivalPos="8.53" arrivalSpeed="13.70" duration="131.00" routeLength="1690.32" waitSteps="0" timeLoss="8.70" rerouteNo="1" devices="tripinfo_19to21.0 routing_19to21.0" vType="DEFAULT_VEHTYPE" speedFactor="1.00" vaporized=""/>
    <tripinfo id="7to10.0" depart="37.00" departLane="e70_0" departPos="5.10" departSpeed="6.00" departDelay="0.00" arrival="134.00" arrivalLane="dst10_0" arrivalPos="17.44" arrivalSpeed="12.99" duration="97.00" routeLength="1241.99" waitSteps="0" timeLoss="7.41" rerouteNo="1" devices="tripinfo_7to10.0 routing_7to10.0" vType="DEFAULT_VEHTYPE" speedFactor="1.00" vaporized=""/>
    <tripinfo id="13to11.0" depart="66.00" departLane="e130_0" departPos="5.10" departSpeed="9.00" departDelay="0.00" arrival="137.00" arrivalLane="dst11_0" arrivalPos="8.90" arrivalSpeed="12.79" duration="71.00" routeLength="933.59" waitSteps="0" timeLoss="3.54" rerouteNo="1" devices="tripinfo_13to11.0 routing_13to11.0" vType="DEFAULT_VEHTYPE" speedFactor="1.00" vaporized=""/>
    <tripinfo id="13to11.1" depart="80.00" departLane="e130_0" departPos="5.10" departSpeed="9.00" departDelay="0.00" arrival="151.00" arrivalLane="dst11_0" arrivalPos="8.90" arrivalSpeed="13.78" duration="71.00" routeLength="933.59" waitSteps="0" timeLoss="3.75" rerouteNo="1" devices="tripinfo_13to11.1 routing_13to11.1" vType="DEFAULT_VEHTYPE" speedFactor="1.00" vaporized=""/>
    <tripinfo id="13to16.0" depart="21.00" departLane="e130_0" departPos="5.10" departSpeed="9.00" departDelay="0.00" arrival="153.00" arrivalLane="dst16_0" arrivalPos="11.34" arrivalSpeed="12.80" duration="132.00" routeLength="1653.35" waitSteps="0" timeLoss="12.29" rerouteNo="1" devices="tripinfo_13to16.0 routing_13to16.0" vType="DEFAULT_VEHTYPE" speedFactor="1.00" vaporized=""/>
    <tripinfo id="21to22.0" depart="52.00" departLane="e210_0" departPos="5.10" departSpeed="13.00" departDelay="0.00" arrival="161.00" arrivalLane="dst22_0" arrivalPos="8.80" arrivalSpeed="13.61" duration="109.00" routeLength="944.64" waitSteps="32" timeLoss="40.15" rerouteNo="1" devices="tripinfo_21to22.0 routing_21to22.0" vType="DEFAULT_VEHTYPE" speedFactor="1.00" vaporized=""/>
    <tripinfo id="1to7.0" depart="8.00" departLane="e10_0" departPos="5.10" departSpeed="10.00" departDelay="0.00" arrival="171.00" arrivalLane="dst7_0" arrivalPos="8.50" arrivalSpeed="13.44" duration="163.00" routeLength="1511.56" waitSteps="40" timeLoss="53.40" rerouteNo="1" devices="tripinfo_1to7.0 routing_1to7.0" vType="DEFAULT_VEHTYPE" speedFactor="1.00" vaporized=""/>
    <tripinfo id="21to17.0" depart="37.00" departLane="e210_0" departPos="5.10" departSpeed="13.00" departDelay="0.00" arrival="210.00" arrivalLane="dst17_0" arrivalPos="8.50" arrivalSpeed="13.38" duration="173.00" routeLength="1836.68" waitSteps="26" timeLoss="40.40" rerouteNo="1" devices="tripinfo_21to17.0 routing_21to17.0" vType="DEFAULT_VEHTYPE" speedFactor="1.00" vaporized=""/>
    <tripinfo id="19to21.1" depart="25.00" departLane="e190_0" departPos="5.10" departSpeed="7.00" departDelay="0.00" arrival="267.00" arrivalLane="dst21_0" arrivalPos="8.53" arrivalSpeed="12.82" duration="242.00" routeLength="1690.32" waitSteps="107" timeLoss="120.35" rerouteNo="1" devices="tripinfo_19to21.1 routing_19to21.1" vType="DEFAULT_VEHTYPE" speedFactor="1.00" vaporized=""/>
    <tripinfo id="19to21.2" depart="32.00" departLane="e190_0" departPos="5.10" departSpeed="7.00" departDelay="0.00" arrival="269.00" arrivalLane="dst21_0" arrivalPos="8.53" arrivalSpeed="13.69" duration="237.00" routeLength="1690.32" waitSteps="101" timeLoss="115.35" rerouteNo="1" devices="tripinfo_19to21.2 routing_19to21.2" vType="DEFAULT_VEHTYPE" speedFactor="1.00" vaporized=""/>
    <tripinfo id="8to1.0" depart="38.00" departLane="e80_0" departPos="5.10" departSpeed="6.00" departDelay="0.00" arrival="269.00" arrivalLane="dst1_0" arrivalPos="3.70" arrivalSpeed="13.45" duration="231.00" routeLength="2080.54" waitSteps="67" timeLoss="81.12" rerouteNo="1" devices="tripinfo_8to1.0 routing_8to1.0" vType="DEFAULT_VEHTYPE" speedFactor="1.00" vaporized=""/>
    <tripinfo id="19to21.3" depart="63.00" departLane="e190_0" departPos="5.10" departSpeed="7.00" departDelay="0.00" arrival="271.00" arrivalLane="dst21_0" arrivalPos="8.53" arrivalSpeed="13.33" duration="208.00" routeLength="1690.32" waitSteps="72" timeLoss="86.20" rerouteNo="1" devices="tripinfo_19to21.3 routing_19to21.3" vType="DEFAULT_VEHTYPE" speedFactor="1.00" vaporized=""/>
    <tripinfo id="19to21.4" depart="90.00" departLane="e190_0" departPos="5.10" departSpeed="7.00" departDelay="0.00" arrival="273.00" arrivalLane="dst21_0" arrivalPos="8.53" arrivalSpeed="12.63" duration="183.00" routeLength="1690.32" waitSteps="45" timeLoss="61.27" rerouteNo="1" devices="tripinfo_19to21.4 routing_19to21.4" vType="DEFAULT_VEHTYPE" speedFactor="1.00" vaporized=""/>
    <tripinfo id="8to2.0" depart="58.00" departLane="e80_0" departPos="5.10" departSpeed="6.00" departDelay="0.00" arrival="273.00" arrivalLane="dst2_0" arrivalPos="12.10" arrivalSpeed="12.68" duration="215.00" routeLength="2074.77" waitSteps="47" timeLoss="65.33" rerouteNo="1" devices="tripinfo_8to2.0 routing_8to2.0" vType="DEFAULT_VEHTYPE" speedFactor="1.00" vaporized=""/>
    <tripinfo id="16to21.0" depart="57.00" departLane="e160_0" departPos="5.10" departSpeed="6.00" departDelay="0.00" arrival="275.00" arrivalLane="dst21_0" arrivalPos="8.53" arrivalSpeed="13.82" duration="218.00" routeLength="2781.99" waitSteps="0" timeLoss="17.56" rerouteNo="1" devices="tripinfo_16to21.0 routing_16to21.0" vType="DEFAULT_VEHTYPE" speedFactor="1.00" vaporized=""/>
    <tripinfo id="16to21.1" depart="63.00" departLane="e160_0" departPos="5.10" departSpeed="6.00" departDelay="0.00" arrival="277.00" arrivalLane="dst21_0" arrivalPos="8.53" arrivalSpeed="13.09" duration="214.00" routeLength="2781.99" waitSteps="0" timeLoss="13.48" rerouteNo="1" devices="tripinfo_16to21.1 routing_16to21.1" vType="DEFAULT_VEHTYPE" speedFactor="1.00" vaporized=""/>
    <tripinfo id="16to22.0" depart="74.00" departLane="e160_0" departPos="5.10" departSpeed="6.00" departDelay="0.00" arrival="278.00" arrivalLane="dst22_0" arrivalPos="8.80" arrivalSpeed="13.12" duration="204.00" routeLength="2635.81" waitSteps="0" timeLoss="14.01" rerouteNo="1" devices="tripinfo_16to22.0 routing_16to22.0" vType="DEFAULT_VEHTYPE" speedFactor="1.00" vaporized=""/>
    <tripinfo id="14to11.0" depart="147.00" departLane="e140_0" departPos="5.10" departSpeed="8.00" departDelay="0.00" arrival="284.00" arrivalLane="dst11_0" arrivalPos="8.90" arrivalSpeed="13.04" duration="137.00" routeLength="1756.78" waitSteps="0" timeLoss="10.17" rerouteNo="1" devices="tripinfo_14to11.0 routing_14to11.0" vType="DEFAULT_VEHTYPE" speedFactor="1.00" vaporized=""/>
    <tripinfo id="11to1.0" depart="30.00" departLane="e110_0" departPos="5.10" departSpeed="7.00" departDelay="0.00" arrival="288.00" arrivalLane="dst1_0" arrivalPos="3.70" arrivalSpeed="13.32" duration="258.00" routeLength="2417.16" waitSteps="68" timeLoss="83.90" rerouteNo="1" devices="tripinfo_11to1.0 routing_11to1.0" vType="DEFAULT_VEHTYPE" speedFactor="1.00" vaporized=""/>
    <tripinfo id="11to1.1" depart="86.00" departLane="e110_0" departPos="5.10" departSpeed="7.00" departDelay="0.00" arrival="290.00" arrivalLane="dst1_0" arrivalPos="3.70" arrivalSpeed="12.97" duration="204.00" routeLength="2417.16" waitSteps="14" timeLoss="30.03" rerouteNo="1" devices="tripinfo_11to1.1 routing_11to1.1" vType="DEFAULT_VEHTYPE" speedFactor="1.00" vaporized=""/>
    <tripinfo id="11to1.2" depart="96.00" departLane="e110_0" departPos="5.10" departSpeed="7.00" departDelay="0.00" arrival="293.00" arrivalLane="dst1_0" arrivalPos="3.70" arrivalSpeed="13.62" duration="197.00" routeLength="2417.16" waitSteps="4" timeLoss="22.17" rerouteNo="1" devices="tripinfo_11to1.2 routing_11to1.2" vType="DEFAULT_VEHTYPE" speedFactor="1.00" vaporized=""/>
    <tripinfo id="17to19.0" depart="117.00" departLane="e170_0" departPos="5.10" departSpeed="10.00" departDelay="0.00" arrival="306.00" arrivalLane="dst19_0" arrivalPos="8.80" arrivalSpeed="13.48" duration="189.00" routeLength="812.24" waitSteps="122" timeLoss="130.08" rerouteNo="1" devices="tripinfo_17to19.0 routing_17to19.0" vType="DEFAULT_VEHTYPE" speedFactor="1.00" vaporized=""/>
    <tripinfo id="10to16.0" depart="121.00" departLane="e100_0" departPos="5.10" departSpeed="5.00" departDelay="0.00" arrival="308.00" arrivalLane="dst16_0" arrivalPos="11.34" arrivalSpeed="13.00" duration="187.00" routeLength="2054.27" waitSteps="22" timeLoss="39.17" rerouteNo="1" devices="tripinfo_10to16.0 routing_10to16.0" vType="DEFAULT_VEHTYPE" speedFactor="1.00" vaporized=""/>
    <tripinfo id="17to19.1" depart="123.00" departLane="e170_0" departPos="5.10" departSpeed="10.00" departDelay="0.00" arrival="308.00" arrivalLane="dst19_0" arrivalPos="8.80" arrivalSpeed="13.20" duration="185.00" routeLength="812.24" waitSteps="111" timeLoss="125.92" rerouteNo="1" devices="tripinfo_17to19.1 routing_17to19.1" vType="DEFAULT_VEHTYPE" speedFactor="1.00" vaporized=""/>
    <tripinfo id="17to22.0" depart="181.00" departLane="e170_0" departPos="5.10" departSpeed="10.00" departDelay="2.00" arrival="310.00" arrivalLane="dst22_0" arrivalPos="8.80" arrivalSpeed="13.75" duration="129.00" routeLength="1692.98" waitSteps="0" timeLoss="6.86" rerouteNo="1" devices="tripinfo_17to22.0 routing_17to22.0" vType="DEFAULT_VEHTYPE" speedFactor="1.00" vaporized=""/>
    <tripinfo id="17to19.2" depart="179.00" departLane="e170_0" departPos="5.10" departSpeed="10.00" departDelay="0.00" arrival="310.00" arrivalLane="dst19_0" arrivalPos="8.80" arrivalSpeed="13.44" duration="131.00" routeLength="812.24" waitSteps="56" timeLoss="71.65" rerouteNo="1" devices="tripinfo_17to19.2 routing_17to19.2" vType="DEFAULT_VEHTYPE" speedFactor="1.00" vaporized=""/>
    <tripinfo id="17to19.4" depart="233.00" departLane="e170_0" departPos="5.10" departSpeed="10.00" departDelay="0.00" arrival="311.00" arrivalLane="dst19_0" arrivalPos="8.80" arrivalSpeed="13.78" duration="78.00" routeLength="812.24" waitSteps="5" timeLoss="19.25" rerouteNo="1" devices="tripinfo_17to19.4 routing_17to19.4" vType="DEFAULT_VEHTYPE" speedFactor="1.00" vaporized=""/>
    <tripinfo id="17to21.0" depart="172.00" departLane="e170_0" departPos="5.10" departSpeed="10.00" departDelay="0.00" arrival="311.00" arrivalLane="dst21_0" arrivalPos="8.53" arrivalSpeed="13.71" duration="139.00" routeLength="1839.16" waitSteps="0" timeLoss="6.42" rerouteNo="1" devices="tripinfo_17to21.0 routing_17to21.0" vType="DEFAULT_VEHTYPE" speedFactor="1.00" vaporized=""/>
    <tripinfo id="14to16.0" depart="246.00" departLane="e140_0" departPos="5.10" departSpeed="8.00" departDelay="0.00" arrival="313.00" arrivalLane="dst16_0" arrivalPos="11.34" arrivalSpeed="13.14" duration="67.00" routeLength="880.56" waitSteps="0" timeLoss="3.56" rerouteNo="1" devices="tripinfo_14to16.0 routing_14to16.0" vType="DEFAULT_VEHTYPE" speedFactor="1.00" vaporized=""/>
    <tripinfo id="17to19.3" depart="187.00" departLane="e170_0" departPos="5.10" departSpeed="10.00" departDelay="0.00" arrival="313.00" arrivalLane="dst19_0" arrivalPos="8.80" arrivalSpeed="13.59" duration="126.00" routeLength="812.24" waitSteps="55" timeLoss="66.98" rerouteNo="1" devices="tripinfo_17to19.3 routing_17to19.3" vType="DEFAULT_VEHTYPE" speedFactor="1.00" vaporized=""/>
    <tripinfo id="19to17.2" depart="116.00" departLane="e190_0" departPos="5.10" departSpeed="7.00" departDelay="0.00" arrival="316.00" arrivalLane="dst17_0" arrivalPos="8.50" arrivalSpeed="13.37" duration="200.00" routeLength="819.31" waitSteps="132" timeLoss="140.13" rerouteNo="1" devices="tripinfo_19to17.2 routing_19to17.2" vType="DEFAULT_VEHTYPE" speedFactor="1.00" vaporized=""/>
    <tripinfo id="19to17.4" depart="154.00" departLane="e190_0" departPos="5.10" departSpeed="7.00" departDelay="0.00" arrival="317.00" arrivalLane="dst17_0" arrivalPos="8.50" arrivalSpeed="12.75" duration="163.00" routeLength="819.31" waitSteps="90" timeLoss="103.90" rerouteNo="1" devices="tripinfo_19to17.4 routing_19to17.4" vType="DEFAULT_VEHTYPE" speedFactor="1.00" vaporized=""/>
    <tripinfo id="19to17.3" depart="139.00" departLane="e190_0" departPos="5.10" departSpeed="7.00" departDelay="0.00" arrival="319.00" arrivalLane="dst17_0" arrivalPos="8.50" arrivalSpeed="12.71" duration="180.00" routeLength="819.31" waitSteps="107" timeLoss="120.64" rerouteNo="1" devices="tripinfo_19to17.3 routing_19to17.3" vType="DEFAULT_VEHTYPE" speedFactor="1.00" vaporized=""/>
    <tripinfo id="19to17.6" depart="211.00" departLane="e190_0" departPos="5.10" departSpeed="7.00" departDelay="0.00" arrival="321.00" arrivalLane="dst17_0" arrivalPos="8.50" arrivalSpeed="13.00" duration="110.00" routeLength="819.31" waitSteps="34" timeLoss="50.43" rerouteNo="1" devices="tripinfo_19to17.6 routing_19to17.6" vType="DEFAULT_VEHTYPE" speedFactor="1.00" vaporized=""/>
    <tripinfo id="19to17.5" depart="206.00" departLane="e190_0" departPos="5.10" departSpeed="7.00" departDelay="0.00" arrival="323.00" arrivalLane="dst17_0" arrivalPos="8.50" arrivalSpeed="13.06" duration="117.00" routeLength="819.31" waitSteps="38" timeLoss="57.21" rerouteNo="1" devices="tripinfo_19to17.5 routing_19to17.5" vType="DEFAULT_VEHTYPE" speedFactor="1.00" vaporized=""/>
    <tripinfo id="19to17.7" depart="275.00" departLane="e190_0" departPos="5.10" departSpeed="7.00" departDelay="0.00" arrival="337.00" arrivalLane="dst17_0" arrivalPos="8.50" arrivalSpeed="12.80" duration="62.00" routeLength="819.31" waitSteps="0" timeLoss="3.00" rerouteNo="1" devices="tripinfo_19to17.7 routing_19to17.7" vType="DEFAULT_VEHTYPE" speedFactor="1.00" vaporized=""/>
    <tripinfo id="17to19.5" depart="276.00" departLane="e170_0" departPos="5.10" departSpeed="10.00" departDelay="0.00" arrival="338.00" arrivalLane="dst19_0" arrivalPos="8.80" arrivalSpeed="13.24" duration="62.00" routeLength="812.24" waitSteps="0" timeLoss="2.81" rerouteNo="1" devices="tripinfo_17to19.5 routing_17to19.5" vType="DEFAULT_VEHTYPE" speedFactor="1.00" vaporized=""/>
    <tripinfo id="19to17.8" depart="284.00" departLane="e190_0" departPos="5.10" departSpeed="7.00" departDelay="0.00" arrival="347.00" arrivalLane="dst17_0" arrivalPos="8.50" arrivalSpeed="13.56" duration="63.00" routeLength="819.31" waitSteps="0" timeLoss="3.40" rerouteNo="1" devices="tripinfo_19to17.8 routing_19to17.8" vType="DEFAULT_VEHTYPE" speedFactor="1.00" vaporized=""/>
    <tripinfo id="20to22.0" depart="108.00" departLane="e200_0" departPos="5.10" departSpeed="6.00" departDelay="0.00" arrival="358.00" arrivalLane="dst22_0" arrivalPos="8.80" arrivalSpeed="13.20" duration="250.00" routeLength="860.38" waitSteps="177" timeLoss="187.46" rerouteNo="1" devices="tripinfo_20to22.0 routing_20to22.0" vType="DEFAULT_VEHTYPE" speedFactor="1.00" vaporized=""/>
    <tripinfo id="20to22.1" depart="269.00" departLane="e200_0" departPos="5.10" departSpeed="6.00" departDelay="0.00" arrival="363.00" arrivalLane="dst22_0" arrivalPos="8.80" arrivalSpeed="13.09" duration="94.00" routeLength="860.38" waitSteps="21" timeLoss="32.04" rerouteNo="1" devices="tripinfo_20to22.1 routing_20to22.1" vType="DEFAULT_VEHTYPE" speedFactor="1.00" vaporized=""/>
    <tripinfo id="14to1.0" depart="102.00" departLane="e140_0" departPos="5.10" departSpeed="8.00" departDelay="0.00" arrival="365.00" arrivalLane="dst1_0" arrivalPos="3.70" arrivalSpeed="13.89" duration="263.00" routeLength="3256.12" waitSteps="9" timeLoss="28.71" rerouteNo="1" devices="tripinfo_14to1.0 routing_14to1.0" vType="DEFAULT_VEHTYPE" speedFactor="1.00" vaporized=""/>
    <tripinfo id="22to20.0" depart="133.00" departLane="e220_0" departPos="5.10" departSpeed="5.00" departDelay="0.00" arrival="375.00" arrivalLane="dst20_0" arrivalPos="8.57" arrivalSpeed="13.60" duration="242.00" routeLength="860.48" waitSteps="165" timeLoss="179.88" rerouteNo="1" devices="tripinfo_22to20.0 routing_22to20.0" vType="DEFAULT_VEHTYPE" speedFactor="1.00" vaporized=""/>
    <tripinfo id="17to19.6" depart="314.00" departLane="e170_0" departPos="5.10" departSpeed="10.00" departDelay="0.00" arrival="376.00" arrivalLane="dst19_0" arrivalPos="8.80" arrivalSpeed="12.69" duration="62.00" routeLength="812.24" waitSteps="0" timeLoss="2.95" rerouteNo="1" devices="tripinfo_17to19.6 routing_17to19.6" vType="DEFAULT_VEHTYPE" speedFactor="1.00" vaporized=""/>
    <tripinfo id="19to17.9" depart="314.00" departLane="e190_0" departPos="5.10" departSpeed="7.00" departDelay="0.00" arrival="377.00" arrivalLane="dst17_0" arrivalPos="8.50" arrivalSpeed="13.49" duration="63.00" routeLength="819.31" waitSteps="0" timeLoss="3.29" rerouteNo="1" devices="tripinfo_19to17.9 routing_19to17.9" vType="DEFAULT_VEHTYPE" speedFactor="1.00" vaporized=""/>
    <tripinfo id="22to20.1" depart="247.00" departLane="e220_0" departPos="5.10" departSpeed="5.00" departDelay="0.00" arrival="377.00" arrivalLane="dst20_0" arrivalPos="8.57" arrivalSpeed="12.80" duration="130.00" routeLength="860.48" waitSteps="53" timeLoss="67.68" rerouteNo="1" devices="tripinfo_22to20.1 routing_22to20.1" vType="DEFAULT_VEHTYPE" speedFactor="1.00" vaporized=""/>
    <tripinfo id="22to20.2" depart="251.00" departLane="e220_0" departPos="5.10" departSpeed="5.00" departDelay="0.00" arrival="379.00" arrivalLane="dst20_0" arrivalPos="8.57" arrivalSpeed="13.17" duration="128.00" routeLength="860.48" waitSteps="51" timeLoss="65.32" rerouteNo="1" devices="tripinfo_22to20.2 routing_22to20.2" vType="DEFAULT_VEHTYPE" speedFactor="1.00" vaporized=""/>
    <tripinfo id="14to16.1" depart="321.00" departLane="e140_0" departPos="5.10" departSpeed="8.00" departDelay="0.00" arrival="388.00" arrivalLane="dst16_0" arrivalPos="11.34" arrivalSpeed="12.86" duration="67.00" routeLength="880.56" waitSteps="0" timeLoss="3.52" rerouteNo="1" devices="tripinfo_14to16.1 routing_14to16.1" vType="DEFAULT_VEHTYPE" speedFactor="1.00" vaporized=""/>
    <tripinfo id="8to1.1" depart="228.00" departLane="e80_0" departPos="5.10" departSpeed="6.00" departDelay="0.00" arrival="388.00" arrivalLane="dst1_0" arrivalPos="3.70" arrivalSpeed="12.80" duration="160.00" routeLength="2080.54" waitSteps="0" timeLoss="9.60" rerouteNo="1" devices="tripinfo_8to1.1 routing_8to1.1" vType="DEFAULT_VEHTYPE" speedFactor="1.00" vaporized=""/>
    <tripinfo id="19to17.10" depart="326.00" departLane="e190_0" departPos="5.10" departSpeed="7.00" departDelay="0.00" arrival="389.00" arrivalLane="dst17_0" arrivalPos="8.50" arrivalSpeed="12.71" duration="63.00" routeLength="819.31" waitSteps="0" timeLoss="3.35" rerouteNo="1" devices="tripinfo_19to17.10 routing_19to17.10" vType="DEFAULT_VEHTYPE" speedFactor="1.00" vaporized=""/>
    <tripinfo id="21to22.1" depart="136.00" departLane="e210_0" departPos="5.10" departSpeed="13.00" departDelay="0.00" arrival="390.00" arrivalLane="dst22_0" arrivalPos="8.80" arrivalSpeed="13.05" duration="254.00" routeLength="944.64" waitSteps="170" timeLoss="185.90" rerouteNo="1" devices="tripinfo_21to22.1 routing_21to22.1" vType="DEFAULT_VEHTYPE" speedFactor="1.00" vaporized=""/>
    <tripinfo id="21to22.2" depart="143.00" departLane="e210_0" departPos="5.10" departSpeed="13.00" departDelay="0.00" arrival="392.00" arrivalLane="dst22_0" arrivalPos="8.80" arrivalSpeed="13.76" duration="249.00" routeLength="944.64" waitSteps="165" timeLoss="180.64" rerouteNo="1" devices="tripinfo_21to22.2 routing_21to22.2" vType="DEFAULT_VEHTYPE" speedFactor="1.00" vaporized=""/>
    <tripinfo id="21to22.3" depart="145.00" departLane="e210_0" departPos="5.10" departSpeed="13.00" departDelay="1.00" arrival="394.00" arrivalLane="dst22_0" arrivalPos="8.80" arrivalSpeed="13.28" duration="249.00" routeLength="944.64" waitSteps="163" timeLoss="180.51" rerouteNo="1" devices="tripinfo_21to22.3 routing_21to22.3" vType="DEFAULT_VEHTYPE" speedFactor="1.00" vaporized=""/>
    <tripinfo id="21to22.4" depart="156.00" departLane="e210_0" departPos="5.10" departSpeed="13.00" departDelay="0.00" arrival="396.00" arrivalLane="dst22_0" arrivalPos="8.80" arrivalSpeed="13.82" duration="240.00" routeLength="944.64" waitSteps="156" timeLoss="171.24" rerouteNo="1" devices="tripinfo_21to22.4 routing_21to22.4" vType="DEFAULT_VEHTYPE" speedFactor="1.00" vaporized=""/>
    <tripinfo id="21to19.0" depart="49.00" departLane="e210_0" departPos="5.10" departSpeed="13.00" departDelay="0.00" arrival="397.00" arrivalLane="dst19_0" arrivalPos="8.80" arrivalSpeed="13.82" duration="348.00" routeLength="1709.39" waitSteps="204" timeLoss="224.95" rerouteNo="1" devices="tripinfo_21to19.0 routing_21to19.0" vType="DEFAULT_VEHTYPE" speedFactor="1.00" vaporized=""/>
    <tripinfo id="21to22.5" depart="159.00" departLane="e210_0" departPos="5.10" departSpeed="13.00" departDelay="0.00" arrival="398.00" arrivalLane="dst22_0" arrivalPos="8.80" arrivalSpeed="13.82" duration="239.00" routeLength="944.64" waitSteps="154" timeLoss="170.06" rerouteNo="1" devices="tripinfo_21to22.5 routing_21to22.5" vType="DEFAULT_VEHTYPE" speedFactor="1.00" vaporized=""/>
    <tripinfo id="19to17.11" depart="340.00" departLane="e190_0" departPos="5.10" departSpeed="7.00" departDelay="0.00" arrival="403.00" arrivalLane="dst17_0" arrivalPos="8.50" arrivalSpeed="13.52" duration="63.00" routeLength="819.31" waitSteps="0" timeLoss="4.02" rerouteNo="1" devices="tripinfo_19to17.11 routing_19to17.11" vType="DEFAULT_VEHTYPE" speedFactor="1.00" vaporized=""/>
    <tripinfo id="21to20.0" depart="163.00" departLane="e210_0" departPos="5.10" departSpeed="13.00" departDelay="0.00" arrival="405.00" arrivalLane="dst20_0" arrivalPos="8.57" arrivalSpeed="13.78" duration="242.00" routeLength="997.73" waitSteps="149" timeLoss="169.69" rerouteNo="1" devices="tripinfo_21to20.0 routing_21to20.0" vType="DEFAULT_VEHTYPE" speedFactor="1.00" vaporized=""/>
    <tripinfo id="7to10.1" depart="311.00" departLane="e70_0" departPos="5.10" departSpeed="6.00" departDelay="0.00" arrival="410.00" arrivalLane="dst10_0" arrivalPos="17.44" arrivalSpeed="12.65" duration="99.00" routeLength="1241.99" waitSteps="0" timeLoss="9.52" rerouteNo="1" devices="tripinfo_7to10.1 routing_7to10.1" vType="DEFAULT_VEHTYPE" speedFactor="1.00" vaporized=""/>
    <tripinfo id="10to1.0" depart="158.00" departLane="e100_0" departPos="5.10" departSpeed="5.00" departDelay="0.00" arrival="427.00" arrivalLane="dst1_0" arrivalPos="3.70" arrivalSpeed="13.83" duration="269.00" routeLength="2036.32" waitSteps="108" timeLoss="122.32" rerouteNo="1" devices="tripinfo_10to1.0 routing_10to1.0" vType="DEFAULT_VEHTYPE" speedFactor="1.00" vaporized=""/>
    <tripinfo id="8to10.0" depart="351.00" departLane="e80_0" departPos="5.10" departSpeed="6.00" departDelay="0.00" arrival="428.00" arrivalLane="dst10_0" arrivalPos="17.44" arrivalSpeed="12.66" duration="77.00" routeLength="1009.67" waitSteps="0" timeLoss="4.32" rerouteNo="1" devices="tripinfo_8to10.0 routing_8to10.0" vType="DEFAULT_VEHTYPE" speedFactor="1.00" vaporized=""/>
    <tripinfo id="1to2.0" depart="17.00" departLane="e10_0" departPos="5.10" departSpeed="10.00" departDelay="1.00" arrival="435.00" arrivalLane="dst2_0" arrivalPos="12.10" arrivalSpeed="13.37" duration="418.00" routeLength="1006.06" waitSteps="335" timeLoss="347.11" rerouteNo="1" devices="tripinfo_1to2.0 routing_1to2.0" vType="DEFAULT_VEHTYPE" speedFactor="1.00" vaporized=""/>
    <tripinfo id="4to2.0" depart="82.00" departLane="e40_0" departPos="5.10" departSpeed="7.00" departDelay="0.00" arrival="455.00" arrivalLane="dst2_0" arrivalPos="12.10" arrivalSpeed="13.43" duration="373.00" routeLength="931.32" waitSteps="301" timeLoss="307.42" rerouteNo="1" devices="tripinfo_4to2.0 routing_4to2.0" vType="DEFAULT_VEHTYPE" speedFactor="1.00" vaporized=""/>
    <tripinfo id="13to11.2" depart="255.00" departLane="e130_0" departPos="5.10" departSpeed="9.00" departDelay="0.00" arrival="461.00" arrivalLane="dst11_0" arrivalPos="8.90" arrivalSpeed="12.85" duration="206.00" routeLength="933.59" waitSteps="129" timeLoss="138.10" rerouteNo="1" devices="tripinfo_13to11.2 routing_13to11.2" vType="DEFAULT_VEHTYPE" speedFactor="1.00" vaporized=""/>
    <tripinfo id="8to10.1" depart="399.00" departLane="e80_0" departPos="5.10" departSpeed="6.00" departDelay="0.00" arrival="477.00" arrivalLane="dst10_0" arrivalPos="17.44" arrivalSpeed="13.70" duration="78.00" routeLength="1009.67" waitSteps="0" timeLoss="4.63" rerouteNo="1" devices="tripinfo_8to10.1 routing_8to10.1" vType="DEFAULT_VEHTYPE" speedFactor="1.00" vaporized=""/>
    <tripinfo id="11to13.1" depart="152.00" departLane="e110_0" departPos="5.10" departSpeed="7.00" departDelay="0.00" arrival="481.00" arrivalLane="dst13_0" arrivalPos="8.54" arrivalSpeed="13.52" duration="329.00" routeLength="934.15" waitSteps="251" timeLoss="261.14" rerouteNo="1" devices="tripinfo_11to13.1 routing_11to13.1" vType="DEFAULT_VEHTYPE" speedFactor="1.00" vaporized=""/>
    <tripinfo id="11to13.2" depart="191.00" departLane="e110_0" departPos="5.10" departSpeed="7.00" departDelay="0.00" arrival="483.00" arrivalLane="dst13_0" arrivalPos="8.54" arrivalSpeed="13.58" duration="292.00" routeLength="934.15" waitSteps="215" timeLoss="223.97" rerouteNo="1" devices="tripinfo_11to13.2 routing_11to13.2" vType="DEFAULT_VEHTYPE" speedFactor="1.00" vaporized=""/>
    <tripinfo id="11to13.3" depart="195.00" departLane="e110_0" departPos="5.10" departSpeed="7.00" departDelay="0.00" arrival="485.00" arrivalLane="dst13_0" arrivalPos="8.54" arrivalSpeed="13.01" duration="290.00" routeLength="934.15" waitSteps="213" timeLoss="222.15" rerouteNo="1" devices="tripinfo_11to13.3 routing_11to13.3" vType="DEFAULT_VEHTYPE" speedFactor="1.00" vaporized=""/>
    <tripinfo id="17to22.1" depart="239.00" departLane="e170_0" departPos="5.10" departSpeed="10.00" departDelay="0.00" arrival="487.00" arrivalLane="dst22_0" arrivalPos="8.80" arrivalSpeed="13.55" duration="248.00" routeLength="1692.98" waitSteps="115" timeLoss="126.04" rerouteNo="1" devices="tripinfo_17to22.1 routing_17to22.1" vType="DEFAULT_VEHTYPE" speedFactor="1.00" vaporized=""/>
    <tripinfo id="11to13.4" depart="233.00" departLane="e110_0" departPos="5.10" departSpeed="7.00" departDelay="0.00" arrival="487.00" arrivalLane="dst13_0" arrivalPos="8.54" arrivalSpeed="12.74" duration="254.00" routeLength="934.15" waitSteps="176" timeLoss="186.34" rerouteNo="1" devices="tripinfo_11to13.4 routing_11to13.4" vType="DEFAULT_VEHTYPE" speedFactor="1.00" vaporized=""/>
    <tripinfo id="21to20.1" depart="192.00" departLane="e210_0" departPos="5.10" departSpeed="13.00" departDelay="0.00" arrival="491.00" arrivalLane="dst20_0" arrivalPos="8.57" arrivalSpeed="12.78" duration="299.00" routeLength="997.73" waitSteps="203" timeLoss="227.16" rerouteNo="1" devices="tripinfo_21to20.1 routing_21to20.1" vType="DEFAULT_VEHTYPE" speedFactor="1.00" vaporized=""/>
    <tripinfo id="17to21.1" depart="236.00" departLane="e170_0" departPos="5.10" departSpeed="10.00" departDelay="0.00" arrival="496.00" arrivalLane="dst21_0" arrivalPos="8.53" arrivalSpeed="13.50" duration="260.00" routeLength="1839.16" waitSteps="115" timeLoss="127.66" rerouteNo="1" devices="tripinfo_17to21.1 routing_17to21.1" vType="DEFAULT_VEHTYPE" speedFactor="1.00" vaporized=""/>
    <tripinfo id="4to7.0" depart="106.00" departLane="e40_0" departPos="5.10" departSpeed="7.00" departDelay="0.00" arrival="500.00" arrivalLane="dst7_0" arrivalPos="8.50" arrivalSpeed="12.76" duration="394.00" routeLength="1423.05" waitSteps="277" timeLoss="290.82" rerouteNo="1" devices="tripinfo_4to7.0 routing_4to7.0" vType="DEFAULT_VEHTYPE" speedFactor="1.00" vaporized=""/>