<?xml version="1.0" encoding="UTF-8"?>

<!-- generated on 04/18/18 19:55:12 by SUMO Version 0.32.0
<?xml version="1.0" encoding="UTF-8"?>

<configuration xmlns:xsi="http://www.w3.org/2001/XMLSchema-instance" xsi:noNamespaceSchemaLocation="http://sumo.dlr.de/xsd/sumoConfiguration.xsd">

    <input>
        <net-file value="tmp/di-tech-7.net.xml"/>
        <route-files value="tmp/di-tech-7.rou.xml"/>
    </input>

    <output>
        <tripinfo-output value="tmp/tripinfo-7.xml"/>
    </output>

    <time>
        <begin value="0.0"/>
    </time>

    <report>
        <no-warnings value="true"/>
        <no-step-log value="true"/>
    </report>

    <traci_server>
        <remote-port value="8831"/>
    </traci_server>

</configuration>
-->

<tripinfos xmlns:xsi="http://www.w3.org/2001/XMLSchema-instance" xsi:noNamespaceSchemaLocation="http://sumo.dlr.de/xsd/tripinfo_file.xsd">
    <tripinfo id="19to17.0" depart="41.00" departLane="e190_0" departPos="5.10" departSpeed="7.00" departDelay="0.00" arrival="104.00" arrivalLane="dst17_0" arrivalPos="8.50" arrivalSpeed="13.25" duration="63.00" routeLength="819.31" waitSteps="0" timeLoss="3.41" rerouteNo="1" devices="tripinfo_19to17.0 routing_19to17.0" vType="DEFAULT_VEHTYPE" speedFactor="1.00" vaporized=""/>
    <tripinfo id="19to17.1" depart="48.00" departLane="e190_0" departPos="5.10" departSpeed="7.00" departDelay="0.00" arrival="111.00" arrivalLane="dst17_0" arrivalPos="8.50" arrivalSpeed="12.74" duration="63.00" routeLength="819.31" waitSteps="0" timeLoss="3.34" rerouteNo="1" devices="tripinfo_19to17.1 routing_19to17.1" vType="DEFAULT_VEHTYPE" speedFactor="1.00" vaporized=""/>
    <tripinfo id="11to13.0" depart="48.00" departLane="e110_0" departPos="5.10" departSpeed="7.00" departDelay="0.00" arrival="120.00" arrivalLane="dst13_0" arrivalPos="8.54" arrivalSpeed="13.24" duration="72.00" routeLength="934.15" waitSteps="0" timeLoss="4.03" rerouteNo="1" devices="tripinfo_11to13.0 routing_11to13.0" vType="DEFAULT_VEHTYPE" speedFactor="1.00" vaporized=""/>
    <tripinfo id="7to10.0" depart="37.00" departLane="e70_0" departPos="5.10" departSpeed="6.00" departDelay="0.00" arrival="134.00" arrivalLane="dst10_0" arrivalPos="17.44" arrivalSpeed="12.72" duration="97.00" routeLength="1241.99" waitSteps="0" timeLoss="7.16" rerouteNo="1" devices="tripinfo_7to10.0 routing_7to10.0" vType="DEFAULT_VEHTYPE" speedFactor="1.00" vaporized=""/>
    <tripinfo id="13to11.0" depart="66.00" departLane="e130_0" departPos="5.10" departSpeed="9.00" departDelay="0.00" arrival="137.00" arrivalLane="dst11_0" arrivalPos="8.90" arrivalSpeed="12.90" duration="71.00" routeLength="933.59" waitSteps="0" timeLoss="3.49" rerouteNo="1" devices="tripinfo_13to11.0 routing_13to11.0" vType="DEFAULT_VEHTYPE" speedFactor="1.00" vaporized=""/>
    <tripinfo id="13to16.0" depart="21.00" departLane="e130_0" departPos="5.10" departSpeed="9.00" departDelay="0.00" arrival="151.00" arrivalLane="dst16_0" arrivalPos="11.34" arrivalSpeed="12.61" duration="130.00" routeLength="1653.35" waitSteps="0" timeLoss="10.59" rerouteNo="1" devices="tripinfo_13to16.0 routing_13to16.0" vType="DEFAULT_VEHTYPE" speedFactor="1.00" vaporized=""/>
    <tripinfo id="13to11.1" depart="80.00" departLane="e130_0" departPos="5.10" departSpeed="9.00" departDelay="0.00" arrival="151.00" arrivalLane="dst11_0" arrivalPos="8.90" arrivalSpeed="13.08" duration="71.00" routeLength="933.59" waitSteps="0" timeLoss="3.36" rerouteNo="1" devices="tripinfo_13to11.1 routing_13to11.1" vType="DEFAULT_VEHTYPE" speedFactor="1.00" vaporized=""/>
    <tripinfo id="4to2.0" depart="82.00" departLane="e40_0" departPos="5.10" departSpeed="7.00" departDelay="0.00" arrival="154.00" arrivalLane="dst2_0" arrivalPos="12.10" arrivalSpeed="13.81" duration="72.00" routeLength="931.32" waitSteps="0" timeLoss="4.20" rerouteNo="1" devices="tripinfo_4to2.0 routing_4to2.0" vType="DEFAULT_VEHTYPE" speedFactor="1.00" vaporized=""/>
    <tripinfo id="8to1.0" depart="38.00" departLane="e80_0" departPos="5.10" departSpeed="6.00" departDelay="0.00" arrival="198.00" arrivalLane="dst1_0" arrivalPos="3.70" arrivalSpeed="12.76" duration="160.00" routeLength="2080.54" waitSteps="0" timeLoss="9.93" rerouteNo="1" devices="tripinfo_8to1.0 routing_8to1.0" vType="DEFAULT_VEHTYPE" speedFactor="1.00" vaporized=""/>
    <tripinfo id="19to21.0" depart="0.00" departLane="e190_0" departPos="5.10" departSpeed="7.00" departDelay="0.00" arrival="204.00" arrivalLane="dst21_0" arrivalPos="8.53" arrivalSpeed="13.50" duration="204.00" routeLength="1690.32" waitSteps="68" timeLoss="82.25" rerouteNo="1" devices="tripinfo_19to21.0 routing_19to21.0" vType="DEFAULT_VEHTYPE" speedFactor="1.00" vaporized=""/>
    <tripinfo id="19to21.1" depart="25.00" departLane="e190_0" departPos="5.10" departSpeed="7.00" departDelay="0.00" arrival="206.00" arrivalLane="dst21_0" arrivalPos="8.53" arrivalSpeed="12.67" duration="181.00" routeLength="1690.32" waitSteps="45" timeLoss="59.07" rerouteNo="1" devices="tripinfo_19to21.1 routing_19to21.1" vType="DEFAULT_VEHTYPE" speedFactor="1.00" vaporized=""/>
    <tripinfo id="19to21.2" depart="32.00" departLane="e190_0" departPos="5.10" departSpeed="7.00" departDelay="0.00" arrival="208.00" arrivalLane="dst21_0" arrivalPos="8.53" arrivalSpeed="12.69" duration="176.00" routeLength="1690.32" waitSteps="39" timeLoss="54.27" rerouteNo="1" devices="tripinfo_19to21.2 routing_19to21.2" vType="DEFAULT_VEHTYPE" speedFactor="1.00" vaporized=""/>
    <tripinfo id="19to21.3" depart="63.00" departLane="e190_0" departPos="5.10" departSpeed="7.00" departDelay="0.00" arrival="210.00" arrivalLane="dst21_0" arrivalPos="8.53" arrivalSpeed="12.74" duration="147.00" routeLength="1690.32" waitSteps="10" timeLoss="25.01" rerouteNo="1" devices="tripinfo_19to21.3 routing_19to21.3" vType="DEFAULT_VEHTYPE" speedFactor="1.00" vaporized=""/>
    <tripinfo id="11to1.0" depart="30.00" departLane="e110_0" departPos="5.10" departSpeed="7.00" departDelay="0.00" arrival="214.00" arrivalLane="dst1_0" arrivalPos="3.70" arrivalSpeed="13.09" duration="184.00" routeLength="2417.16" waitSteps="0" timeLoss="9.65" rerouteNo="1" devices="tripinfo_11to1.0 routing_11to1.0" vType="DEFAULT_VEHTYPE" speedFactor="1.00" vaporized=""/>
    <tripinfo id="4to7.0" depart="106.00" departLane="e40_0" departPos="5.10" departSpeed="7.00" departDelay="0.00" arrival="217.00" arrivalLane="dst7_0" arrivalPos="8.50" arrivalSpeed="12.63" duration="111.00" routeLength="1423.05" waitSteps="0" timeLoss="8.52" rerouteNo="1" devices="tripinfo_4to7.0 routing_4to7.0" vType="DEFAULT_VEHTYPE" speedFactor="1.00" vaporized=""/>
    <tripinfo id="8to2.0" depart="58.00" departLane="e80_0" departPos="5.10" departSpeed="6.00" departDelay="0.00" arrival="218.00" arrivalLane="dst2_0" arrivalPos="12.10" arrivalSpeed="13.79" duration="160.00" routeLength="2074.77" waitSteps="0" timeLoss="10.47" rerouteNo="1" devices="tripinfo_8to2.0 routing_8to2.0" vType="DEFAULT_VEHTYPE" speedFactor="1.00" vaporized=""/>
    <tripinfo id="19to21.4" depart="90.00" departLane="e190_0" departPos="5.10" departSpeed="7.00" departDelay="0.00" arrival="220.00" arrivalLane="dst21_0" arrivalPos="8.53" arrivalSpeed="13.08" duration="130.00" routeLength="1690.32" waitSteps="0" timeLoss="8.03" rerouteNo="1" devices="tripinfo_19to21.4 routing_19to21.4" vType="DEFAULT_VEHTYPE" speedFactor="1.00" vaporized=""/>
    <tripinfo id="1to7.0" depart="8.00" departLane="e10_0" departPos="5.10" departSpeed="10.00" departDelay="0.00" arrival="221.00" arrivalLane="dst7_0" arrivalPos="8.50" arrivalSpeed="13.68" duration="213.00" routeLength="1511.56" waitSteps="91" timeLoss="104.06" rerouteNo="1" devices="tripinfo_1to7.0 routing_1to7.0" vType="DEFAULT_VEHTYPE" speedFactor="1.00" vaporized=""/>
    <tripinfo id="20to14.0" depart="33.00" departLane="e200_0" departPos="5.10" departSpeed="6.00" departDelay="0.00" arrival="264.00" arrivalLane="dst14_0" arrivalPos="1.01" arrivalSpeed="12.95" duration="231.00" routeLength="2770.66" waitSteps="6" timeLoss="31.20" rerouteNo="1" devices="tripinfo_20to14.0 routing_20to14.0" vType="DEFAULT_VEHTYPE" speedFactor="1.00" vaporized=""/>
    <tripinfo id="21to17.0" depart="37.00" departLane="e210_0" departPos="5.10" departSpeed="13.00" departDelay="0.00" arrival="265.00" arrivalLane="dst17_0" arrivalPos="8.50" arrivalSpeed="13.06" duration="228.00" routeLength="1836.68" waitSteps="80" timeLoss="94.96" rerouteNo="1" devices="tripinfo_21to17.0 routing_21to17.0" vType="DEFAULT_VEHTYPE" speedFactor="1.00" vaporized=""/>
    <tripinfo id="20to14.1" depart="52.00" departLane="e200_0" departPos="5.10" departSpeed="6.00" departDelay="2.00" arrival="268.00" arrivalLane="dst14_0" arrivalPos="1.01" arrivalSpeed="13.86" duration="216.00" routeLength="2770.66" waitSteps="0" timeLoss="16.37" rerouteNo="1" devices="tripinfo_20to14.1 routing_20to14.1" vType="DEFAULT_VEHTYPE" speedFactor="1.00" vaporized=""/>
    <tripinfo id="16to21.0" depart="57.00" departLane="e160_0" departPos="5.10" departSpeed="6.00" departDelay="0.00" arrival="269.00" arrivalLane="dst21_0" arrivalPos="8.53" arrivalSpeed="13.60" duration="212.00" routeLength="2781.99" waitSteps="0" timeLoss="11.85" rerouteNo="1" devices="tripinfo_16to21.0 routing_16to21.0" vType="DEFAULT_VEHTYPE" speedFactor="1.00" vaporized=""/>
    <tripinfo id="16to21.1" depart="63.00" departLane="e160_0" departPos="5.10" departSpeed="6.00" departDelay="0.00" arrival="275.00" arrivalLane="dst21_0" arrivalPos="8.53" arrivalSpeed="13.71" duration="212.00" routeLength="2781.99" waitSteps="0" timeLoss="11.71" rerouteNo="1" devices="tripinfo_16to21.1 routing_16to21.1" vType="DEFAULT_VEHTYPE" speedFactor="1.00" vaporized=""/>
    <tripinfo id="16to22.0" depart="74.00" departLane="e160_0" departPos="5.10" departSpeed="6.00" departDelay="0.00" arrival="277.00" arrivalLane="dst22_0" arrivalPos="8.80" arrivalSpeed="12.77" duration="203.00" routeLength="2635.81" waitSteps="0" timeLoss="13.24" rerouteNo="1" devices="tripinfo_16to22.0 routing_16to22.0" vType="DEFAULT_VEHTYPE" speedFactor="1.00" vaporized=""/>
    <tripinfo id="1to8.0" depart="15.00" departLane="e10_0" departPos="5.10" departSpeed="10.00" departDelay="0.00" arrival="312.00" arrivalLane="dst8_0" arrivalPos="14.38" arrivalSpeed="13.40" duration="297.00" routeLength="2099.36" waitSteps="126" timeLoss="145.07" rerouteNo="1" devices="tripinfo_1to8.0 routing_1to8.0" vType="DEFAULT_VEHTYPE" speedFactor="1.00" vaporized=""/>
    <tripinfo id="16to21.2" depart="105.00" departLane="e160_0" departPos="5.10" departSpeed="6.00" departDelay="0.00" arrival="317.00" arrivalLane="dst21_0" arrivalPos="8.53" arrivalSpeed="13.75" duration="212.00" routeLength="2781.99" waitSteps="0" timeLoss="11.35" rerouteNo="1" devices="tripinfo_16to21.2 routing_16to21.2" vType="DEFAULT_VEHTYPE" speedFactor="1.00" vaporized=""/>
    <tripinfo id="16to22.1" depart="122.00" departLane="e160_0" departPos="5.10" departSpeed="6.00" departDelay="0.00" arrival="325.00" arrivalLane="dst22_0" arrivalPos="8.80" arrivalSpeed="13.67" duration="203.00" routeLength="2635.81" waitSteps="0" timeLoss="13.35" rerouteNo="1" devices="tripinfo_16to22.1 routing_16to22.1" vType="DEFAULT_VEHTYPE" speedFactor="1.00" vaporized=""/>
    <tripinfo id="16to21.3" depart="136.00" departLane="e160_0" departPos="5.10" departSpeed="6.00" departDelay="0.00" arrival="349.00" arrivalLane="dst21_0" arrivalPos="8.53" arrivalSpeed="13.77" duration="213.00" routeLength="2781.99" waitSteps="0" timeLoss="12.12" rerouteNo="1" devices="tripinfo_16to21.3 routing_16to21.3" vType="DEFAULT_VEHTYPE" speedFactor="1.00" vaporized=""/>
    <tripinfo id="20to11.0" depart="50.00" departLane="e200_0" departPos="5.10" departSpeed="6.00" departDelay="0.00" arrival="370.00" arrivalLane="dst11_0" arrivalPos="8.90" arrivalSpeed="13.06" duration="320.00" routeLength="3583.50" waitSteps="33" timeLoss="62.06" rerouteNo="1" devices="tripinfo_20to11.0 routing_20to11.0" vType="DEFAULT_VEHTYPE" speedFactor="1.00" vaporized=""/>
    <tripinfo id="20to22.0" depart="108.00" departLane="e200_0" departPos="5.10" departSpeed="6.00" departDelay="0.00" arrival="383.00" arrivalLane="dst22_0" arrivalPos="8.80" arrivalSpeed="12.86" duration="275.00" routeLength="860.38" waitSteps="203" timeLoss="212.89" rerouteNo="1" devices="tripinfo_20to22.0 routing_20to22.0" vType="DEFAULT_VEHTYPE" speedFactor="1.00" vaporized=""/>
    <tripinfo id="20to22.1" depart="233.00" departLane="e200_0" departPos="5.10" departSpeed="6.00" departDelay="0.00" arrival="390.00" arrivalLane="dst22_0" arrivalPos="8.80" arrivalSpeed="13.18" duration="157.00" routeLength="860.38" waitSteps="84" timeLoss="94.75" rerouteNo="1" devices="tripinfo_20to22.1 routing_20to22.1" vType="DEFAULT_VEHTYPE" speedFactor="1.00" vaporized=""/>
    <tripinfo id="20to22.2" depart="244.00" departLane="e200_0" departPos="5.10" departSpeed="6.00" departDelay="0.00" arrival="392.00" arrivalLane="dst22_0" arrivalPos="8.80" arrivalSpeed="13.65" duration="148.00" routeLength="860.38" waitSteps="76" timeLoss="85.81" rerouteNo="1" devices="tripinfo_20to22.2 routing_20to22.2" vType="DEFAULT_VEHTYPE" speedFactor="1.00" vaporized=""/>
    <tripinfo id="20to22.3" depart="264.00" departLane="e200_0" departPos="5.10" departSpeed="6.00" departDelay="0.00" arrival="394.00" arrivalLane="dst22_0" arrivalPos="8.80" arrivalSpeed="13.71" duration="130.00" routeLength="860.38" waitSteps="57" timeLoss="67.71" rerouteNo="1" devices="tripinfo_20to22.3 routing_20to22.3" vType="DEFAULT_VEHTYPE" speedFactor="1.00" vaporized=""/>
    <tripinfo id="20to22.4" depart="297.00" departLane="e200_0" departPos="5.10" departSpeed="6.00" departDelay="0.00" arrival="396.00" arrivalLane="dst22_0" arrivalPos="8.80" arrivalSpeed="13.06" duration="99.00" routeLength="860.38" waitSteps="24" timeLoss="36.75" rerouteNo="1" devices="tripinfo_20to22.4 routing_20to22.4" vType="DEFAULT_VEHTYPE" speedFactor="1.00" vaporized=""/>
    <tripinfo id="1to2.0" depart="17.00" departLane="e10_0" departPos="5.10" departSpeed="10.00" departDelay="1.00" arrival="399.00" arrivalLane="dst2_0" arrivalPos="12.10" arrivalSpeed="13.16" duration="382.00" routeLength="1006.06" waitSteps="294" timeLoss="309.08" rerouteNo="1" devices="tripinfo_1to2.0 routing_1to2.0" vType="DEFAULT_VEHTYPE" speedFactor="1.00" vaporized=""/>
    <tripinfo id="22to20.0" depart="226.00" departLane="e220_0" departPos="5.10" departSpeed="5.00" departDelay="0.00" arrival="405.00" arrivalLane="dst20_0" arrivalPos="8.57" arrivalSpeed="12.86" duration="179.00" routeLength="860.48" waitSteps="103" timeLoss="116.81" rerouteNo="1" devices="tripinfo_22to20.0 routing_22to20.0" vType="DEFAULT_VEHTYPE" speedFactor="1.00" vaporized=""/>
    <tripinfo id="20to22.5" depart="348.00" departLane="e200_0" departPos="5.10" departSpeed="6.00" departDelay="0.00" arrival="414.00" arrivalLane="dst22_0" arrivalPos="8.80" arrivalSpeed="13.83" duration="66.00" routeLength="860.38" waitSteps="0" timeLoss="3.71" rerouteNo="1" devices="tripinfo_20to22.5 routing_20to22.5" vType="DEFAULT_VEHTYPE" speedFactor="1.00" vaporized=""/>
    <tripinfo id="10to16.0" depart="121.00" departLane="e100_0" departPos="5.10" departSpeed="5.00" departDelay="0.00" arrival="418.00" arrivalLane="dst16_0" arrivalPos="11.34" arrivalSpeed="13.58" duration="297.00" routeLength="2054.27" waitSteps="131" timeLoss="149.21" rerouteNo="1" devices="tripinfo_10to16.0 routing_10to16.0" vType="DEFAULT_VEHTYPE" speedFactor="1.00" vaporized=""/>
    <tripinfo id="10to16.1" depart="168.00" departLane="e100_0" departPos="5.10" departSpeed="5.00" departDelay="0.00" arrival="420.00" arrivalLane="dst16_0" arrivalPos="11.34" arrivalSpeed="13.47" duration="252.00" routeLength="2054.27" waitSteps="80" timeLoss="104.09" rerouteNo="1" devices="tripinfo_10to16.1 routing_10to16.1" vType="DEFAULT_VEHTYPE" speedFactor="1.00" vaporized=""/>
    <tripinfo id="14to16.0" depart="261.00" departLane="e140_0" departPos="5.10" departSpeed="8.00" departDelay="0.00" arrival="425.00" arrivalLane="dst16_0" arrivalPos="11.34" arrivalSpeed="13.28" duration="164.00" routeLength="880.56" waitSteps="91" timeLoss="100.14" rerouteNo="1" devices="tripinfo_14to16.0 routing_14to16.0" vType="DEFAULT_VEHTYPE" speedFactor="1.00" vaporized=""/>
    <tripinfo id="20to22.6" depart="394.00" departLane="e200_0" departPos="5.10" departSpeed="6.00" departDelay="0.00" arrival="460.00" arrivalLane="dst22_0" arrivalPos="8.80" arrivalSpeed="12.93" duration="66.00" routeLength="860.38" waitSteps="0" timeLoss="3.45" rerouteNo="1" devices="tripinfo_20to22.6 routing_20to22.6" vType="DEFAULT_VEHTYPE" speedFactor="1.00" vaporized=""/>
    <tripinfo id="20to22.7" depart="402.00" departLane="e200_0" departPos="5.10" departSpeed="6.00" departDelay="0.00" arrival="468.00" arrivalLane="dst22_0" arrivalPos="8.80" arrivalSpeed="13.39" duration="66.00" routeLength="860.38" waitSteps="0" timeLoss="3.99" rerouteNo="1" devices="tripinfo_20to22.7 routing_20to22.7" vType="DEFAULT_VEHTYPE" speedFactor="1.00" vaporized=""/>
    <tripinfo id="4to1.0" depart="270.00" departLane="e40_0" departPos="5.10" departSpeed="7.00" departDelay="0.00" arrival="479.00" arrivalLane="dst1_0" arrivalPos="3.70" arrivalSpeed="13.33" duration="209.00" routeLength="923.14" waitSteps="133" timeLoss="142.13" rerouteNo="1" devices="tripinfo_4to1.0 routing_4to1.0" vType="DEFAULT_VEHTYPE" speedFactor="1.00" vaporized=""/>
    <tripinfo id="17to19.0" depart="117.00" departLane="e170_0" departPos="5.10" departSpeed="10.00" departDelay="0.00" arrival="480.00" arrivalLane="dst19_0" arrivalPos="8.80" arrivalSpeed="12.82" duration="363.00" routeLength="812.24" waitSteps="301" timeLoss="305.73" rerouteNo="1" devices="tripinfo_17to19.0 routing_17to19.0" vType="DEFAULT_VEHTYPE" speedFactor="1.00" vaporized=""/>
    <tripinfo id="19to17.2" depart="116.00" departLane="e190_0" departPos="5.10" departSpeed="7.00" departDelay="0.00" arrival="480.00" arrivalLane="dst17_0" arrivalPos="8.50" arrivalSpeed="12.89" duration="364.00" routeLength="819.31" waitSteps="301" timeLoss="307.10" rerouteNo="1" devices="tripinfo_19to17.2 routing_19to17.2" vType="DEFAULT_VEHTYPE" speedFactor="1.00" vaporized=""/>
    <tripinfo id="4to2.1" depart="108.00" departLane="e40_0" departPos="5.10" departSpeed="7.00" departDelay="1.00" arrival="480.00" arrivalLane="dst2_0" arrivalPos="12.10" arrivalSpeed="12.93" duration="372.00" routeLength="931.32" waitSteps="295" timeLoss="304.70" rerouteNo="1" devices="tripinfo_4to2.1 routing_4to2.1" vType="DEFAULT_VEHTYPE" speedFactor="1.00" vaporized=""/>
    <tripinfo id="4to2.2" depart="248.00" departLane="e40_0" departPos="5.10" departSpeed="7.00" departDelay="0.00" arrival="486.00" arrivalLane="dst2_0" arrivalPos="12.10" arrivalSpeed="12.88" duration="238.00" routeLength="931.32" waitSteps="158" timeLoss="170.85" rerouteNo="1" devices="tripinfo_4to2.2 routing_4to2.2" vType="DEFAULT_VEHTYPE" speedFactor="1.00" vaporized=""/>
    <tripinfo id="14to5.0" depart="171.00" departLane="e140_0" departPos="5.10" departSpeed="8.00" departDelay="0.00" arrival="489.00" arrivalLane="dst5_0" arrivalPos="0.94" arrivalSpeed="12.83" duration="318.00" routeLength="2582.74" waitSteps="105" timeLoss="131.72" rerouteNo="1" devices="tripinfo_14to5.0 routing_14to5.0" vType="DEFAULT_VEHTYPE" speedFactor="1.00" vaporized=""/>
    <tripinfo id="17to19.1" depart="123.00" departLane="e170_0" departPos="5.10" departSpeed="10.00" departDelay="0.00" arrival="493.00" arrivalLane="dst19_0" arrivalPos="8.80" arrivalSpeed="13.61" duration="370.00" routeLength="812.24" waitSteps="305" timeLoss="312.97" rerouteNo="1" devices="tripinfo_17to19.1 routing_17to19.1" vType="DEFAULT_VEHTYPE" speedFactor="1.00" vaporized=""/>
    <tripinfo id="21to22.0" depart="52.00" departLane="e210_0" departPos="5.10" departSpeed="13.00" departDelay="0.00" arrival="502.00" arrivalLane="dst22_0" arrivalPos="8.80" arrivalSpeed="13.55" duration="450.00" routeLength="944.64" waitSteps="370" timeLoss="382.48" rerouteNo="1" devices="tripinfo_21to22.0 routing_21to22.0" vType="DEFAULT_VEHTYPE" speedFactor="1.00" vaporized=""/>
    <tripinfo id="20to22.8" depart="447.00" departLane="e200_0" departPos="5.10" departSpeed="6.00" departDelay="0.00" arrival="513.00" arrivalLane="dst22_0" arrivalPos="8.80" arrivalSpeed="13.09" duration="66.00" routeLength="860.38" waitSteps="0" timeLoss="3.61" rerouteNo="1" devices="tripinfo_20to22.8 routing_20to22.8" vType="DEFAULT_VEHTYPE" speedFactor="1.00" vaporized=""/>
    <tripinfo id="19to17.3" depart="144.00" departLane="e190_0" departPos="5.10" departSpeed="7.00" departDelay="0.00" arrival="513.00" arrivalLane="dst17_0" arrivalPos="8.50" arrivalSpeed="12.91" duration="369.00" routeLength="819.31" waitSteps="301" timeLoss="311.32" rerouteNo="1" devices="tripinfo_19to17.3 routing_19to17.3" vType="DEFAULT_VEHTYPE" speedFactor="1.00" vaporized=""/>
    <tripinfo id="4to7.1" depart="110.00" departLane="e40_0" departPos="5.10" departSpeed="7.00" departDelay="1.00" arrival="521.00" arrivalLane="dst7_0" arrivalPos="8.50" arrivalSpeed="12.66" duration="411.00" routeLength="1423.05" waitSteps="294" timeLoss="307.93" rerouteNo="1" devices="tripinfo_4to7.1 routing_4to7.1" vType="DEFAULT_VEHTYPE" speedFactor="1.00" vaporized=""/>
    <tripinfo id="4to7.2" depart="172.00" departLane="e40_0" departPos="5.10" departSpeed="7.00" departDelay="0.00" arrival="523.00" arrivalLane="dst7_0" arrivalPos="8.50" arrivalSpeed="13.45" duration="351.00" routeLength="1423.05" waitSteps="234" timeLoss="248.43" rerouteNo="1" devices="tripinfo_4to7.2 routing_4to7.2" vType="DEFAULT_VEHTYPE" speedFactor="1.00" vaporized=""/>
    <tripinfo id="10to8.0" depart="232.00" departLane="e100_0" departPos="5.10" departSpeed="5.00" departDelay="0.00" arrival="526.00" arrivalLane="dst8_0" arrivalPos="14.38" arrivalSpeed="13.14" duration="294.00" routeLength="1007.72" waitSteps="213" timeLoss="220.53" rerouteNo="1" devices="tripinfo_10to8.0 routing_10to8.0" vType="DEFAULT_VEHTYPE" speedFactor="1.00" vaporized=""/>
    <tripinfo id="10to8.1" depart="255.00" departLane="e100_0" departPos="5.10" departSpeed="5.00" departDelay="0.00" arrival="528.00" arrivalLane="dst8_0" arrivalPos="14.38" arrivalSpeed="13.28" duration="273.00" routeLength="1007.72" waitSteps="190" timeLoss="200.37" rerouteNo="1" devices="tripinfo_10to8.1 routing_10to8.1" vType="DEFAULT_VEHTYPE" speedFactor="1.00" vaporized=""/>
    <tripinfo id="4to7.3" depart="268.00" departLane="e40_0" departPos="5.10" departSpeed="7.00" departDelay="0.00" arrival="529.00" arrivalLane="dst7_0" arrivalPos="8.50" arrivalSpeed="13.04" duration="261.00" routeLength="1423.05" waitSteps="142" timeLoss="158.52" rerouteNo="1" devices="tripinfo_4to7.3 routing_4to7.3" vType="DEFAULT_VEHTYPE" speedFactor="1.00" vaporized=""/>
    <tripinfo id="4to7.4" depart="278.00" departLane="e40_0" departPos="5.10" departSpeed="7.00" departDelay="0.00" arrival="533.00" arrivalLane="dst7_0" arrivalPos="8.50" arrivalSpeed="13.46" duration="255.00" routeLength="1423.05" waitSteps="135" timeLoss="151.77" rerouteNo="1" devices="tripinfo_4to7.4 routing_4to7.4" vType="DEFAULT_VEHTYPE" speedFactor="1.00" vaporized=""/>
    <tripinfo id="14to16.1" depart="471.00" departLane="e140_0" departPos="5.10" departSpeed="8.00" departDelay="0.00" arrival="538.00" arrivalLane="dst16_0" arrivalPos="11.34" arrivalSpeed="13.36" duration="67.00" routeLength="880.56" waitSteps="0" timeLoss="3.52" rerouteNo="1" devices="tripinfo_14to16.1 routing_14to16.1" vType="DEFAULT_VEHTYPE" speedFactor="1.00" vaporized=""/>
    <tripinfo id="13to11.2" depart="164.00" departLane="e130_0" departPos="5.10" departSpeed="9.00" departDelay="0.00" arrival="538.00" arrivalLane="dst11_0" arrivalPos="8.90" arrivalSpeed="12.70" duration="374.00" routeLength="933.59" waitSteps="301" timeLoss="307.80" rerouteNo="1" devices="tripinfo_13to11.2 routing_13to11.2" vType="DEFAULT_VEHTYPE" speedFactor="1.00" vaporized=""/>
    <tripinfo id="19to17.5" depart="180.00" departLane="e190_0" departPos="5.10" departSpeed="7.00" departDelay="0.00" arrival="549.00" arrivalLane="dst17_0" arrivalPos="8.50" arrivalSpeed="13.61" duration="369.00" routeLength="819.31" waitSteps="301" timeLoss="311.76" rerouteNo="1" devices="tripinfo_19to17.5 routing_19to17.5" vType="DEFAULT_VEHTYPE" speedFactor="1.00" vaporized=""/>
    <tripinfo id="17to19.2" depart="139.00" departLane="e170_0" departPos="5.10" departSpeed="10.00" departDelay="0.00" arrival="551.00" arrivalLane="dst19_0" arrivalPos="8.80" arrivalSpeed="13.46" duration="412.00" routeLength="812.24" waitSteps="340" timeLoss="352.71" rerouteNo="1" devices="tripinfo_17to19.2 routing_17to19.2" vType="DEFAULT_VEHTYPE" speedFactor="1.00" vaporized=""/>
    <tripinfo id="17to19.3" depart="152.00" departLane="e170_0" departPos="5.10" departSpeed="10.00" departDelay="0.00" arrival="552.00" arrivalLane="dst19_0" arrivalPos="8.80" arrivalSpeed="13.11" duration="400.00" routeLength="812.24" waitSteps="326" timeLoss="341.54" rerouteNo="1" devices="tripinfo_17to19.3 routing_17to19.3" vType="DEFAULT_VEHTYPE" speedFactor="1.00" vaporized=""/>
    <tripinfo id="17to19.5" depart="179.00" departLane="e170_0" departPos="5.10" departSpeed="10.00" departDelay="0.00" arrival="554.00" arrivalLane="dst19_0" arrivalPos="8.80" arrivalSpeed="13.45" duration="375.00" routeLength="812.24" waitSteps="296" timeLoss="316.20" rerouteNo="1" devices="tripinfo_17to19.5 routing_17to19.5" vType="DEFAULT_VEHTYPE" speedFactor="1.00" vaporized=""/>
    <tripinfo id="17to19.7" depart="250.00" departLane="e170_0" departPos="5.10" departSpeed="10.00" departDelay="0.00" arrival="556.00" arrivalLane="dst19_0" arrivalPos="8.80" arrivalSpeed="13.81" duration="306.00" routeLength="812.24" waitSteps="227" timeLoss="246.92" rerouteNo="1" devices="tripinfo_17to19.7 routing_17to19.7" vType="DEFAULT_VEHTYPE" speedFactor="1.00" vaporized=""/>
    <tripinfo id="17to19.4" depart="165.00" departLane="e170_0" departPos="5.10" departSpeed="10.00" departDelay="0.00" arrival="558.00" arrivalLane="dst19_0" arrivalPos="8.80" arrivalSpeed="12.99" duration="393.00" routeLength="812.24" waitSteps="317" timeLoss="333.71" rerouteNo="1" devices="tripinfo_17to19.4 routing_17to19.4" vType="DEFAULT_VEHTYPE" speedFactor="1.00" vaporized=""/>
    <tripinfo id="17to19.8" depart="266.00" departLane="e170_0" departPos="5.10" departSpeed="10.00" departDelay="0.00" arrival="559.00" arrivalLane="dst19_0" arrivalPos="8.80" arrivalSpeed="13.15" duration="293.00" routeLength="812.24" waitSteps="213" timeLoss="234.42" rerouteNo="1" devices="tripinfo_17to19.8 routing_17to19.8" vType="DEFAULT_VEHTYPE" speedFactor="1.00" vaporized=""/>
    <tripinfo id="19to17.6" depart="193.00" departLane="e190_0" departPos="5.10" departSpeed="7.00" departDelay="0.00" arrival="560.00" arrivalLane="dst17_0" arrivalPos="8.50" arrivalSpeed="12.86" duration="367.00" routeLength="819.31" waitSteps="292" timeLoss="307.63" rerouteNo="1" devices="tripinfo_19to17.6 routing_19to17.6" vType="DEFAULT_VEHTYPE" speedFactor="1.00" vaporized=""/>
    <tripinfo id="17to19.6" depart="196.00" departLane="e170_0" departPos="5.10" departSpeed="10.00" departDelay="0.00" arrival="561.00" arrivalLane="dst19_0" arrivalPos="8.80" arrivalSpeed="13.37" duration="365.00" routeLength="812.24" waitSteps="287" timeLoss="306.18" rerouteNo="1" devices="tripinfo_17to19.6 routing_17to19.6" vType="DEFAULT_VEHTYPE" speedFactor="1.00" vaporized=""/>
    <tripinfo id="19to17.4" depart="168.00" departLane="e190_0" departPos="5.10" departSpeed="7.00" departDelay="0.00" arrival="562.00" arrivalLane="dst17_0" arrivalPos="8.50" arrivalSpeed="12.64" duration="394.00" routeLength="819.31" waitSteps="321" timeLoss="334.53" rerouteNo="1" devices="tripinfo_19to17.4 routing_19to17.4" vType="DEFAULT_VEHTYPE" speedFactor="1.00" vaporized=""/>
    <tripinfo id="17to19.12" depart="361.00" departLane="e170_0" departPos="5.10" departSpeed="10.00" departDelay="0.00" arrival="563.00" arrivalLane="dst19_0" arrivalPos="8.80" arrivalSpeed="13.51" duration="202.00" routeLength="812.24" waitSteps="118" timeLoss="142.88" rerouteNo="1" devices="tripinfo_17to19.12 routing_17to19.12" vType="DEFAULT_VEHTYPE" speedFactor="1.00" vaporized=""/>
    <tripinfo id="17to19.14" depart="392.00" departLane="e170_0" departPos="5.10" departSpeed="10.00" departDelay="0.00" arrival="564.00" arrivalLane="dst19_0" arrivalPos="8.80" arrivalSpeed="13.60" duration="172.00" routeLength="812.24" waitSteps="89" timeLoss="113.49" rerouteNo="1" devices="tripinfo_17to19.14 routing_17to19.14" vType="DEFAULT_VEHTYPE" speedFactor="1.00" vaporized=""/>
    <tripinfo id="19to17.7" depart="354.00" departLane="e190_0" departPos="5.10" departSpeed="7.00" departDelay="0.00" arrival="564.00" arrivalLane="dst17_0" arrivalPos="8.50" arrivalSpeed="13.86" duration="210.00" routeLength="819.31" waitSteps="126" timeLoss="150.10" rerouteNo="1" devices="tripinfo_19to17.7 routing_19to17.7" vType="DEFAULT_VEHTYPE" speedFactor="1.00" vaporized=""/>
    <tripinfo id="19to17.9" depart="361.00" departLane="e190_0" departPos="5.10" departSpeed="7.00" departDelay="0.00" arrival="565.00" arrivalLane="dst17_0" arrivalPos="8.50" arrivalSpeed="12.95" duration="204.00" routeLength="819.31" waitSteps="120" timeLoss="144.86" rerouteNo="1" devices="tripinfo_19to17.9 routing_19to17.9" vType="DEFAULT_VEHTYPE" speedFactor="1.00" vaporized=""/>
    <tripinfo id="17to19.15" depart="396.00" departLane="e170_0" departPos="5.10" departSpeed="10.00" departDelay="0.00" arrival="566.00" arrivalLane="dst19_0" arrivalPos="8.80" arrivalSpeed="12.95" duration="170.00" routeLength="812.24" waitSteps="83" timeLoss="111.23" rerouteNo="1" devices="tripinfo_17to19.15 routing_17to19.15" vType="DEFAULT_VEHTYPE" speedFactor="1.00" vaporized=""/>